########### generatePositions.py 2024/06/21 22:43:40 ###########
2560 atoms

2 atom types

0.0 12.75572 xlo xhi
0.0 11.04677756356124 ylo yhi
0.0 207.69428000000002 zlo zhi

Masses

1 26.981539
2 14.0067
Atoms

1 1 1 4.440892098500626e-16 1.8411295939268735 0.0
2 1 2 4.440892098500626e-16 1.8411295939268735 1.947133875
3 1 1 1.5944650000000002 0.9205647969634367 2.5961785
4 1 2 1.5944650000000002 0.9205647969634367 4.543312375
5 1 1 4.440892098500626e-16 1.8411295939268735 5.192357
6 1 2 4.440892098500626e-16 1.8411295939268735 7.139490875
7 1 1 1.5944650000000002 0.9205647969634367 7.7885355
8 1 2 1.5944650000000002 0.9205647969634367 9.735669375
9 1 1 4.440892098500626e-16 1.8411295939268735 10.384714
10 1 2 4.440892098500626e-16 1.8411295939268735 12.331847875000001
11 1 1 1.5944650000000002 0.9205647969634367 12.980892500000001
12 1 2 1.5944650000000002 0.9205647969634367 14.928026375000002
13 1 1 4.440892098500626e-16 1.8411295939268735 15.577071
14 1 2 4.440892098500626e-16 1.8411295939268735 17.524204875
15 1 1 1.5944650000000002 0.9205647969634367 18.1732495
16 1 2 1.5944650000000002 0.9205647969634367 20.120383375
17 1 1 4.440892098500626e-16 1.8411295939268735 20.769428
18 1 2 4.440892098500626e-16 1.8411295939268735 22.716561875
19 1 1 1.5944650000000002 0.9205647969634367 23.365606500000002
20 1 2 1.5944650000000002 0.9205647969634367 25.312740375
21 1 1 4.440892098500626e-16 1.8411295939268735 25.961785000000003
22 1 2 4.440892098500626e-16 1.8411295939268735 27.908918875
23 1 1 1.5944650000000002 0.9205647969634367 28.557963500000003
24 1 2 1.5944650000000002 0.9205647969634367 30.505097375000002
25 1 1 4.440892098500626e-16 1.8411295939268735 31.154142
26 1 2 4.440892098500626e-16 1.8411295939268735 33.101275875
27 1 1 1.5944650000000002 0.9205647969634367 33.7503205
28 1 2 1.5944650000000002 0.9205647969634367 35.697454375
29 1 1 4.440892098500626e-16 1.8411295939268735 36.346499
30 1 2 4.440892098500626e-16 1.8411295939268735 38.293632875
31 1 1 1.5944650000000002 0.9205647969634367 38.9426775
32 1 2 1.5944650000000002 0.9205647969634367 40.889811375
33 1 1 4.440892098500626e-16 1.8411295939268735 41.538856
34 1 2 4.440892098500626e-16 1.8411295939268735 43.485989875
35 1 1 1.5944650000000002 0.9205647969634367 44.1350345
36 1 2 1.5944650000000002 0.9205647969634367 46.082168375
37 1 1 4.440892098500626e-16 1.8411295939268735 46.731213000000004
38 1 2 4.440892098500626e-16 1.8411295939268735 48.678346875
39 1 1 1.5944650000000002 0.9205647969634367 49.327391500000004
40 1 2 1.5944650000000002 0.9205647969634367 51.274525375
41 1 1 4.440892098500626e-16 1.8411295939268735 51.923570000000005
42 1 2 4.440892098500626e-16 1.8411295939268735 53.870703875000004
43 1 1 1.5944650000000002 0.9205647969634367 54.519748500000006
44 1 2 1.5944650000000002 0.9205647969634367 56.466882375000004
45 1 1 4.440892098500626e-16 1.8411295939268735 57.115927000000006
46 1 2 4.440892098500626e-16 1.8411295939268735 59.063060875000005
47 1 1 1.5944650000000002 0.9205647969634367 59.71210550000001
48 1 2 1.5944650000000002 0.9205647969634367 61.659239375000006
49 1 1 4.440892098500626e-16 1.8411295939268735 62.308284
50 1 2 4.440892098500626e-16 1.8411295939268735 64.255417875
51 1 1 1.5944650000000002 0.9205647969634367 64.9044625
52 1 2 1.5944650000000002 0.9205647969634367 66.851596375
53 1 1 4.440892098500626e-16 1.8411295939268735 67.500641
54 1 2 4.440892098500626e-16 1.8411295939268735 69.44777487500001
55 1 1 1.5944650000000002 0.9205647969634367 70.0968195
56 1 2 1.5944650000000002 0.9205647969634367 72.043953375
57 1 1 4.440892098500626e-16 1.8411295939268735 72.692998
58 1 2 4.440892098500626e-16 1.8411295939268735 74.64013187500001
59 1 1 1.5944650000000002 0.9205647969634367 75.2891765
60 1 2 1.5944650000000002 0.9205647969634367 77.236310375
61 1 1 4.440892098500626e-16 1.8411295939268735 77.885355
62 1 2 4.440892098500626e-16 1.8411295939268735 79.83248887500001
63 1 1 1.5944650000000002 0.9205647969634367 80.4815335
64 1 2 1.5944650000000002 0.9205647969634367 82.428667375
65 1 1 4.440892098500626e-16 1.8411295939268735 83.077712
66 1 2 4.440892098500626e-16 1.8411295939268735 85.02484587500001
67 1 1 1.5944650000000002 0.9205647969634367 85.6738905
68 1 2 1.5944650000000002 0.9205647969634367 87.621024375
69 1 1 4.440892098500626e-16 1.8411295939268735 88.270069
70 1 2 4.440892098500626e-16 1.8411295939268735 90.21720287500001
71 1 1 1.5944650000000002 0.9205647969634367 90.8662475
72 1 2 1.5944650000000002 0.9205647969634367 92.813381375
73 1 1 4.440892098500626e-16 1.8411295939268735 93.46242600000001
74 1 2 4.440892098500626e-16 1.8411295939268735 95.40955987500001
75 1 1 1.5944650000000002 0.9205647969634367 96.0586045
76 1 2 1.5944650000000002 0.9205647969634367 98.005738375
77 1 1 4.440892098500626e-16 1.8411295939268735 98.65478300000001
78 1 2 4.440892098500626e-16 1.8411295939268735 100.60191687500001
79 1 1 1.5944650000000002 0.9205647969634367 101.2509615
80 1 2 1.5944650000000002 0.9205647969634367 103.19809537500001
81 1 1 4.440892098500626e-16 1.8411295939268735 103.84714000000001
82 1 2 4.440892098500626e-16 1.8411295939268735 105.79427387500002
83 1 1 1.5944650000000002 0.9205647969634367 106.4433185
84 1 2 1.5944650000000002 0.9205647969634367 108.39045237500001
85 1 1 4.440892098500626e-16 1.8411295939268735 109.03949700000001
86 1 2 4.440892098500626e-16 1.8411295939268735 110.98663087500002
87 1 1 1.5944650000000002 0.9205647969634367 111.6356755
88 1 2 1.5944650000000002 0.9205647969634367 113.58280937500001
89 1 1 4.440892098500626e-16 1.8411295939268735 114.23185400000001
90 1 2 4.440892098500626e-16 1.8411295939268735 116.17898787500002
91 1 1 1.5944650000000002 0.9205647969634367 116.8280325
92 1 2 1.5944650000000002 0.9205647969634367 118.77516637500001
93 1 1 4.440892098500626e-16 1.8411295939268735 119.42421100000001
94 1 2 4.440892098500626e-16 1.8411295939268735 121.37134487500002
95 1 1 1.5944650000000002 0.9205647969634367 122.02038950000001
96 1 2 1.5944650000000002 0.9205647969634367 123.96752337500001
97 1 1 4.440892098500626e-16 1.8411295939268735 124.616568
98 1 2 4.440892098500626e-16 1.8411295939268735 126.563701875
99 1 1 1.5944650000000002 0.9205647969634367 127.2127465
100 1 2 1.5944650000000002 0.9205647969634367 129.159880375
101 1 1 4.440892098500626e-16 1.8411295939268735 129.80892500000002
102 1 2 4.440892098500626e-16 1.8411295939268735 131.756058875
103 1 1 1.5944650000000002 0.9205647969634367 132.40510350000002
104 1 2 1.5944650000000002 0.9205647969634367 134.35223737500002
105 1 1 4.440892098500626e-16 1.8411295939268735 135.001282
106 1 2 4.440892098500626e-16 1.8411295939268735 136.948415875
107 1 1 1.5944650000000002 0.9205647969634367 137.5974605
108 1 2 1.5944650000000002 0.9205647969634367 139.544594375
109 1 1 4.440892098500626e-16 1.8411295939268735 140.19363900000002
110 1 2 4.440892098500626e-16 1.8411295939268735 142.140772875
111 1 1 1.5944650000000002 0.9205647969634367 142.78981750000003
112 1 2 1.5944650000000002 0.9205647969634367 144.73695137500002
113 1 1 4.440892098500626e-16 1.8411295939268735 145.385996
114 1 2 4.440892098500626e-16 1.8411295939268735 147.333129875
115 1 1 1.5944650000000002 0.9205647969634367 147.9821745
116 1 2 1.5944650000000002 0.9205647969634367 149.929308375
117 1 1 4.440892098500626e-16 1.8411295939268735 150.57835300000002
118 1 2 4.440892098500626e-16 1.8411295939268735 152.525486875
119 1 1 1.5944650000000002 0.9205647969634367 153.17453150000003
120 1 2 1.5944650000000002 0.9205647969634367 155.12166537500002
121 1 1 4.440892098500626e-16 1.8411295939268735 155.77071
122 1 2 4.440892098500626e-16 1.8411295939268735 157.717843875
123 1 1 1.5944650000000002 0.9205647969634367 158.36688850000002
124 1 2 1.5944650000000002 0.9205647969634367 160.314022375
125 1 1 4.440892098500626e-16 1.8411295939268735 160.96306700000002
126 1 2 4.440892098500626e-16 1.8411295939268735 162.91020087500002
127 1 1 1.5944650000000002 0.9205647969634367 163.55924550000003
128 1 2 1.5944650000000002 0.9205647969634367 165.50637937500002
129 1 1 4.440892098500626e-16 1.8411295939268735 166.155424
130 1 2 4.440892098500626e-16 1.8411295939268735 168.102557875
131 1 1 1.5944650000000002 0.9205647969634367 168.75160250000002
132 1 2 1.5944650000000002 0.9205647969634367 170.698736375
133 1 1 4.440892098500626e-16 1.8411295939268735 171.347781
134 1 2 4.440892098500626e-16 1.8411295939268735 173.294914875
135 1 1 1.5944650000000002 0.9205647969634367 173.9439595
136 1 2 1.5944650000000002 0.9205647969634367 175.891093375
137 1 1 4.440892098500626e-16 1.8411295939268735 176.540138
138 1 2 4.440892098500626e-16 1.8411295939268735 178.487271875
139 1 1 1.5944650000000002 0.9205647969634367 179.13631650000002
140 1 2 1.5944650000000002 0.9205647969634367 181.083450375
141 1 1 4.440892098500626e-16 1.8411295939268735 181.732495
142 1 2 4.440892098500626e-16 1.8411295939268735 183.679628875
143 1 1 1.5944650000000002 0.9205647969634367 184.3286735
144 1 2 1.5944650000000002 0.9205647969634367 186.275807375
145 1 1 4.440892098500626e-16 1.8411295939268735 186.92485200000002
146 1 2 4.440892098500626e-16 1.8411295939268735 188.871985875
147 1 1 1.5944650000000002 0.9205647969634367 189.52103050000002
148 1 2 1.5944650000000002 0.9205647969634367 191.46816437500001
149 1 1 4.440892098500626e-16 1.8411295939268735 192.117209
150 1 2 4.440892098500626e-16 1.8411295939268735 194.064342875
151 1 1 1.5944650000000002 0.9205647969634367 194.7133875
152 1 2 1.5944650000000002 0.9205647969634367 196.660521375
153 1 1 4.440892098500626e-16 1.8411295939268735 197.30956600000002
154 1 2 4.440892098500626e-16 1.8411295939268735 199.256699875
155 1 1 1.5944650000000002 0.9205647969634367 199.90574450000003
156 1 2 1.5944650000000002 0.9205647969634367 201.85287837500002
157 1 1 4.440892098500626e-16 1.8411295939268735 202.501923
158 1 2 4.440892098500626e-16 1.8411295939268735 204.449056875
159 1 1 1.5944650000000002 0.9205647969634367 205.0981015
160 1 2 1.5944650000000002 0.9205647969634367 207.045235375
161 1 1 11.161255 4.602823984817183 0.0
162 1 2 11.161255 4.602823984817183 1.947133875
163 1 1 8.881784197001252e-16 3.682259187853747 2.5961785
164 1 2 8.881784197001252e-16 3.682259187853747 4.543312375
165 1 1 11.161255 4.602823984817183 5.192357
166 1 2 11.161255 4.602823984817183 7.139490875
167 1 1 8.881784197001252e-16 3.682259187853747 7.7885355
168 1 2 8.881784197001252e-16 3.682259187853747 9.735669375
169 1 1 11.161255 4.602823984817183 10.384714
170 1 2 11.161255 4.602823984817183 12.331847875000001
171 1 1 8.881784197001252e-16 3.682259187853747 12.980892500000001
172 1 2 8.881784197001252e-16 3.682259187853747 14.928026375000002
173 1 1 11.161255 4.602823984817183 15.577071
174 1 2 11.161255 4.602823984817183 17.524204875
175 1 1 8.881784197001252e-16 3.682259187853747 18.1732495
176 1 2 8.881784197001252e-16 3.682259187853747 20.120383375
177 1 1 11.161255 4.602823984817183 20.769428
178 1 2 11.161255 4.602823984817183 22.716561875
179 1 1 8.881784197001252e-16 3.682259187853747 23.365606500000002
180 1 2 8.881784197001252e-16 3.682259187853747 25.312740375
181 1 1 11.161255 4.602823984817183 25.961785000000003
182 1 2 11.161255 4.602823984817183 27.908918875
183 1 1 8.881784197001252e-16 3.682259187853747 28.557963500000003
184 1 2 8.881784197001252e-16 3.682259187853747 30.505097375000002
185 1 1 11.161255 4.602823984817183 31.154142
186 1 2 11.161255 4.602823984817183 33.101275875
187 1 1 8.881784197001252e-16 3.682259187853747 33.7503205
188 1 2 8.881784197001252e-16 3.682259187853747 35.697454375
189 1 1 11.161255 4.602823984817183 36.346499
190 1 2 11.161255 4.602823984817183 38.293632875
191 1 1 8.881784197001252e-16 3.682259187853747 38.9426775
192 1 2 8.881784197001252e-16 3.682259187853747 40.889811375
193 1 1 11.161255 4.602823984817183 41.538856
194 1 2 11.161255 4.602823984817183 43.485989875
195 1 1 8.881784197001252e-16 3.682259187853747 44.1350345
196 1 2 8.881784197001252e-16 3.682259187853747 46.082168375
197 1 1 11.161255 4.602823984817183 46.731213000000004
198 1 2 11.161255 4.602823984817183 48.678346875
199 1 1 8.881784197001252e-16 3.682259187853747 49.327391500000004
200 1 2 8.881784197001252e-16 3.682259187853747 51.274525375
201 1 1 11.161255 4.602823984817183 51.923570000000005
202 1 2 11.161255 4.602823984817183 53.870703875000004
203 1 1 8.881784197001252e-16 3.682259187853747 54.519748500000006
204 1 2 8.881784197001252e-16 3.682259187853747 56.466882375000004
205 1 1 11.161255 4.602823984817183 57.115927000000006
206 1 2 11.161255 4.602823984817183 59.063060875000005
207 1 1 8.881784197001252e-16 3.682259187853747 59.71210550000001
208 1 2 8.881784197001252e-16 3.682259187853747 61.659239375000006
209 1 1 11.161255 4.602823984817183 62.308284
210 1 2 11.161255 4.602823984817183 64.255417875
211 1 1 8.881784197001252e-16 3.682259187853747 64.9044625
212 1 2 8.881784197001252e-16 3.682259187853747 66.851596375
213 1 1 11.161255 4.602823984817183 67.500641
214 1 2 11.161255 4.602823984817183 69.44777487500001
215 1 1 8.881784197001252e-16 3.682259187853747 70.0968195
216 1 2 8.881784197001252e-16 3.682259187853747 72.043953375
217 1 1 11.161255 4.602823984817183 72.692998
218 1 2 11.161255 4.602823984817183 74.64013187500001
219 1 1 8.881784197001252e-16 3.682259187853747 75.2891765
220 1 2 8.881784197001252e-16 3.682259187853747 77.236310375
221 1 1 11.161255 4.602823984817183 77.885355
222 1 2 11.161255 4.602823984817183 79.83248887500001
223 1 1 8.881784197001252e-16 3.682259187853747 80.4815335
224 1 2 8.881784197001252e-16 3.682259187853747 82.428667375
225 1 1 11.161255 4.602823984817183 83.077712
226 1 2 11.161255 4.602823984817183 85.02484587500001
227 1 1 8.881784197001252e-16 3.682259187853747 85.6738905
228 1 2 8.881784197001252e-16 3.682259187853747 87.621024375
229 1 1 11.161255 4.602823984817183 88.270069
230 1 2 11.161255 4.602823984817183 90.21720287500001
231 1 1 8.881784197001252e-16 3.682259187853747 90.8662475
232 1 2 8.881784197001252e-16 3.682259187853747 92.813381375
233 1 1 11.161255 4.602823984817183 93.46242600000001
234 1 2 11.161255 4.602823984817183 95.40955987500001
235 1 1 8.881784197001252e-16 3.682259187853747 96.0586045
236 1 2 8.881784197001252e-16 3.682259187853747 98.005738375
237 1 1 11.161255 4.602823984817183 98.65478300000001
238 1 2 11.161255 4.602823984817183 100.60191687500001
239 1 1 8.881784197001252e-16 3.682259187853747 101.2509615
240 1 2 8.881784197001252e-16 3.682259187853747 103.19809537500001
241 1 1 11.161255 4.602823984817183 103.84714000000001
242 1 2 11.161255 4.602823984817183 105.79427387500002
243 1 1 8.881784197001252e-16 3.682259187853747 106.4433185
244 1 2 8.881784197001252e-16 3.682259187853747 108.39045237500001
245 1 1 11.161255 4.602823984817183 109.03949700000001
246 1 2 11.161255 4.602823984817183 110.98663087500002
247 1 1 8.881784197001252e-16 3.682259187853747 111.6356755
248 1 2 8.881784197001252e-16 3.682259187853747 113.58280937500001
249 1 1 11.161255 4.602823984817183 114.23185400000001
250 1 2 11.161255 4.602823984817183 116.17898787500002
251 1 1 8.881784197001252e-16 3.682259187853747 116.8280325
252 1 2 8.881784197001252e-16 3.682259187853747 118.77516637500001
253 1 1 11.161255 4.602823984817183 119.42421100000001
254 1 2 11.161255 4.602823984817183 121.37134487500002
255 1 1 8.881784197001252e-16 3.682259187853747 122.02038950000001
256 1 2 8.881784197001252e-16 3.682259187853747 123.96752337500001
257 1 1 11.161255 4.602823984817183 124.616568
258 1 2 11.161255 4.602823984817183 126.563701875
259 1 1 8.881784197001252e-16 3.682259187853747 127.2127465
260 1 2 8.881784197001252e-16 3.682259187853747 129.159880375
261 1 1 11.161255 4.602823984817183 129.80892500000002
262 1 2 11.161255 4.602823984817183 131.756058875
263 1 1 8.881784197001252e-16 3.682259187853747 132.40510350000002
264 1 2 8.881784197001252e-16 3.682259187853747 134.35223737500002
265 1 1 11.161255 4.602823984817183 135.001282
266 1 2 11.161255 4.602823984817183 136.948415875
267 1 1 8.881784197001252e-16 3.682259187853747 137.5974605
268 1 2 8.881784197001252e-16 3.682259187853747 139.544594375
269 1 1 11.161255 4.602823984817183 140.19363900000002
270 1 2 11.161255 4.602823984817183 142.140772875
271 1 1 8.881784197001252e-16 3.682259187853747 142.78981750000003
272 1 2 8.881784197001252e-16 3.682259187853747 144.73695137500002
273 1 1 11.161255 4.602823984817183 145.385996
274 1 2 11.161255 4.602823984817183 147.333129875
275 1 1 8.881784197001252e-16 3.682259187853747 147.9821745
276 1 2 8.881784197001252e-16 3.682259187853747 149.929308375
277 1 1 11.161255 4.602823984817183 150.57835300000002
278 1 2 11.161255 4.602823984817183 152.525486875
279 1 1 8.881784197001252e-16 3.682259187853747 153.17453150000003
280 1 2 8.881784197001252e-16 3.682259187853747 155.12166537500002
281 1 1 11.161255 4.602823984817183 155.77071
282 1 2 11.161255 4.602823984817183 157.717843875
283 1 1 8.881784197001252e-16 3.682259187853747 158.36688850000002
284 1 2 8.881784197001252e-16 3.682259187853747 160.314022375
285 1 1 11.161255 4.602823984817183 160.96306700000002
286 1 2 11.161255 4.602823984817183 162.91020087500002
287 1 1 8.881784197001252e-16 3.682259187853747 163.55924550000003
288 1 2 8.881784197001252e-16 3.682259187853747 165.50637937500002
289 1 1 11.161255 4.602823984817183 166.155424
290 1 2 11.161255 4.602823984817183 168.102557875
291 1 1 8.881784197001252e-16 3.682259187853747 168.75160250000002
292 1 2 8.881784197001252e-16 3.682259187853747 170.698736375
293 1 1 11.161255 4.602823984817183 171.347781
294 1 2 11.161255 4.602823984817183 173.294914875
295 1 1 8.881784197001252e-16 3.682259187853747 173.9439595
296 1 2 8.881784197001252e-16 3.682259187853747 175.891093375
297 1 1 11.161255 4.602823984817183 176.540138
298 1 2 11.161255 4.602823984817183 178.487271875
299 1 1 8.881784197001252e-16 3.682259187853747 179.13631650000002
300 1 2 8.881784197001252e-16 3.682259187853747 181.083450375
301 1 1 11.161255 4.602823984817183 181.732495
302 1 2 11.161255 4.602823984817183 183.679628875
303 1 1 8.881784197001252e-16 3.682259187853747 184.3286735
304 1 2 8.881784197001252e-16 3.682259187853747 186.275807375
305 1 1 11.161255 4.602823984817183 186.92485200000002
306 1 2 11.161255 4.602823984817183 188.871985875
307 1 1 8.881784197001252e-16 3.682259187853747 189.52103050000002
308 1 2 8.881784197001252e-16 3.682259187853747 191.46816437500001
309 1 1 11.161255 4.602823984817183 192.117209
310 1 2 11.161255 4.602823984817183 194.064342875
311 1 1 8.881784197001252e-16 3.682259187853747 194.7133875
312 1 2 8.881784197001252e-16 3.682259187853747 196.660521375
313 1 1 11.161255 4.602823984817183 197.30956600000002
314 1 2 11.161255 4.602823984817183 199.256699875
315 1 1 8.881784197001252e-16 3.682259187853747 199.90574450000003
316 1 2 8.881784197001252e-16 3.682259187853747 201.85287837500002
317 1 1 11.161255 4.602823984817183 202.501923
318 1 2 11.161255 4.602823984817183 204.449056875
319 1 1 8.881784197001252e-16 3.682259187853747 205.0981015
320 1 2 8.881784197001252e-16 3.682259187853747 207.045235375
321 1 1 9.566790000000001 7.364518375707494 0.0
322 1 2 9.566790000000001 7.364518375707494 1.947133875
323 1 1 11.161255 6.443953578744057 2.5961785
324 1 2 11.161255 6.443953578744057 4.543312375
325 1 1 9.566790000000001 7.364518375707494 5.192357
326 1 2 9.566790000000001 7.364518375707494 7.139490875
327 1 1 11.161255 6.443953578744057 7.7885355
328 1 2 11.161255 6.443953578744057 9.735669375
329 1 1 9.566790000000001 7.364518375707494 10.384714
330 1 2 9.566790000000001 7.364518375707494 12.331847875000001
331 1 1 11.161255 6.443953578744057 12.980892500000001
332 1 2 11.161255 6.443953578744057 14.928026375000002
333 1 1 9.566790000000001 7.364518375707494 15.577071
334 1 2 9.566790000000001 7.364518375707494 17.524204875
335 1 1 11.161255 6.443953578744057 18.1732495
336 1 2 11.161255 6.443953578744057 20.120383375
337 1 1 9.566790000000001 7.364518375707494 20.769428
338 1 2 9.566790000000001 7.364518375707494 22.716561875
339 1 1 11.161255 6.443953578744057 23.365606500000002
340 1 2 11.161255 6.443953578744057 25.312740375
341 1 1 9.566790000000001 7.364518375707494 25.961785000000003
342 1 2 9.566790000000001 7.364518375707494 27.908918875
343 1 1 11.161255 6.443953578744057 28.557963500000003
344 1 2 11.161255 6.443953578744057 30.505097375000002
345 1 1 9.566790000000001 7.364518375707494 31.154142
346 1 2 9.566790000000001 7.364518375707494 33.101275875
347 1 1 11.161255 6.443953578744057 33.7503205
348 1 2 11.161255 6.443953578744057 35.697454375
349 1 1 9.566790000000001 7.364518375707494 36.346499
350 1 2 9.566790000000001 7.364518375707494 38.293632875
351 1 1 11.161255 6.443953578744057 38.9426775
352 1 2 11.161255 6.443953578744057 40.889811375
353 1 1 9.566790000000001 7.364518375707494 41.538856
354 1 2 9.566790000000001 7.364518375707494 43.485989875
355 1 1 11.161255 6.443953578744057 44.1350345
356 1 2 11.161255 6.443953578744057 46.082168375
357 1 1 9.566790000000001 7.364518375707494 46.731213000000004
358 1 2 9.566790000000001 7.364518375707494 48.678346875
359 1 1 11.161255 6.443953578744057 49.327391500000004
360 1 2 11.161255 6.443953578744057 51.274525375
361 1 1 9.566790000000001 7.364518375707494 51.923570000000005
362 1 2 9.566790000000001 7.364518375707494 53.870703875000004
363 1 1 11.161255 6.443953578744057 54.519748500000006
364 1 2 11.161255 6.443953578744057 56.466882375000004
365 1 1 9.566790000000001 7.364518375707494 57.115927000000006
366 1 2 9.566790000000001 7.364518375707494 59.063060875000005
367 1 1 11.161255 6.443953578744057 59.71210550000001
368 1 2 11.161255 6.443953578744057 61.659239375000006
369 1 1 9.566790000000001 7.364518375707494 62.308284
370 1 2 9.566790000000001 7.364518375707494 64.255417875
371 1 1 11.161255 6.443953578744057 64.9044625
372 1 2 11.161255 6.443953578744057 66.851596375
373 1 1 9.566790000000001 7.364518375707494 67.500641
374 1 2 9.566790000000001 7.364518375707494 69.44777487500001
375 1 1 11.161255 6.443953578744057 70.0968195
376 1 2 11.161255 6.443953578744057 72.043953375
377 1 1 9.566790000000001 7.364518375707494 72.692998
378 1 2 9.566790000000001 7.364518375707494 74.64013187500001
379 1 1 11.161255 6.443953578744057 75.2891765
380 1 2 11.161255 6.443953578744057 77.236310375
381 1 1 9.566790000000001 7.364518375707494 77.885355
382 1 2 9.566790000000001 7.364518375707494 79.83248887500001
383 1 1 11.161255 6.443953578744057 80.4815335
384 1 2 11.161255 6.443953578744057 82.428667375
385 1 1 9.566790000000001 7.364518375707494 83.077712
386 1 2 9.566790000000001 7.364518375707494 85.02484587500001
387 1 1 11.161255 6.443953578744057 85.6738905
388 1 2 11.161255 6.443953578744057 87.621024375
389 1 1 9.566790000000001 7.364518375707494 88.270069
390 1 2 9.566790000000001 7.364518375707494 90.21720287500001
391 1 1 11.161255 6.443953578744057 90.8662475
392 1 2 11.161255 6.443953578744057 92.813381375
393 1 1 9.566790000000001 7.364518375707494 93.46242600000001
394 1 2 9.566790000000001 7.364518375707494 95.40955987500001
395 1 1 11.161255 6.443953578744057 96.0586045
396 1 2 11.161255 6.443953578744057 98.005738375
397 1 1 9.566790000000001 7.364518375707494 98.65478300000001
398 1 2 9.566790000000001 7.364518375707494 100.60191687500001
399 1 1 11.161255 6.443953578744057 101.2509615
400 1 2 11.161255 6.443953578744057 103.19809537500001
401 1 1 9.566790000000001 7.364518375707494 103.84714000000001
402 1 2 9.566790000000001 7.364518375707494 105.79427387500002
403 1 1 11.161255 6.443953578744057 106.4433185
404 1 2 11.161255 6.443953578744057 108.39045237500001
405 1 1 9.566790000000001 7.364518375707494 109.03949700000001
406 1 2 9.566790000000001 7.364518375707494 110.98663087500002
407 1 1 11.161255 6.443953578744057 111.6356755
408 1 2 11.161255 6.443953578744057 113.58280937500001
409 1 1 9.566790000000001 7.364518375707494 114.23185400000001
410 1 2 9.566790000000001 7.364518375707494 116.17898787500002
411 1 1 11.161255 6.443953578744057 116.8280325
412 1 2 11.161255 6.443953578744057 118.77516637500001
413 1 1 9.566790000000001 7.364518375707494 119.42421100000001
414 1 2 9.566790000000001 7.364518375707494 121.37134487500002
415 1 1 11.161255 6.443953578744057 122.02038950000001
416 1 2 11.161255 6.443953578744057 123.96752337500001
417 1 1 9.566790000000001 7.364518375707494 124.616568
418 1 2 9.566790000000001 7.364518375707494 126.563701875
419 1 1 11.161255 6.443953578744057 127.2127465
420 1 2 11.161255 6.443953578744057 129.159880375
421 1 1 9.566790000000001 7.364518375707494 129.80892500000002
422 1 2 9.566790000000001 7.364518375707494 131.756058875
423 1 1 11.161255 6.443953578744057 132.40510350000002
424 1 2 11.161255 6.443953578744057 134.35223737500002
425 1 1 9.566790000000001 7.364518375707494 135.001282
426 1 2 9.566790000000001 7.364518375707494 136.948415875
427 1 1 11.161255 6.443953578744057 137.5974605
428 1 2 11.161255 6.443953578744057 139.544594375
429 1 1 9.566790000000001 7.364518375707494 140.19363900000002
430 1 2 9.566790000000001 7.364518375707494 142.140772875
431 1 1 11.161255 6.443953578744057 142.78981750000003
432 1 2 11.161255 6.443953578744057 144.73695137500002
433 1 1 9.566790000000001 7.364518375707494 145.385996
434 1 2 9.566790000000001 7.364518375707494 147.333129875
435 1 1 11.161255 6.443953578744057 147.9821745
436 1 2 11.161255 6.443953578744057 149.929308375
437 1 1 9.566790000000001 7.364518375707494 150.57835300000002
438 1 2 9.566790000000001 7.364518375707494 152.525486875
439 1 1 11.161255 6.443953578744057 153.17453150000003
440 1 2 11.161255 6.443953578744057 155.12166537500002
441 1 1 9.566790000000001 7.364518375707494 155.77071
442 1 2 9.566790000000001 7.364518375707494 157.717843875
443 1 1 11.161255 6.443953578744057 158.36688850000002
444 1 2 11.161255 6.443953578744057 160.314022375
445 1 1 9.566790000000001 7.364518375707494 160.96306700000002
446 1 2 9.566790000000001 7.364518375707494 162.91020087500002
447 1 1 11.161255 6.443953578744057 163.55924550000003
448 1 2 11.161255 6.443953578744057 165.50637937500002
449 1 1 9.566790000000001 7.364518375707494 166.155424
450 1 2 9.566790000000001 7.364518375707494 168.102557875
451 1 1 11.161255 6.443953578744057 168.75160250000002
452 1 2 11.161255 6.443953578744057 170.698736375
453 1 1 9.566790000000001 7.364518375707494 171.347781
454 1 2 9.566790000000001 7.364518375707494 173.294914875
455 1 1 11.161255 6.443953578744057 173.9439595
456 1 2 11.161255 6.443953578744057 175.891093375
457 1 1 9.566790000000001 7.364518375707494 176.540138
458 1 2 9.566790000000001 7.364518375707494 178.487271875
459 1 1 11.161255 6.443953578744057 179.13631650000002
460 1 2 11.161255 6.443953578744057 181.083450375
461 1 1 9.566790000000001 7.364518375707494 181.732495
462 1 2 9.566790000000001 7.364518375707494 183.679628875
463 1 1 11.161255 6.443953578744057 184.3286735
464 1 2 11.161255 6.443953578744057 186.275807375
465 1 1 9.566790000000001 7.364518375707494 186.92485200000002
466 1 2 9.566790000000001 7.364518375707494 188.871985875
467 1 1 11.161255 6.443953578744057 189.52103050000002
468 1 2 11.161255 6.443953578744057 191.46816437500001
469 1 1 9.566790000000001 7.364518375707494 192.117209
470 1 2 9.566790000000001 7.364518375707494 194.064342875
471 1 1 11.161255 6.443953578744057 194.7133875
472 1 2 11.161255 6.443953578744057 196.660521375
473 1 1 9.566790000000001 7.364518375707494 197.30956600000002
474 1 2 9.566790000000001 7.364518375707494 199.256699875
475 1 1 11.161255 6.443953578744057 199.90574450000003
476 1 2 11.161255 6.443953578744057 201.85287837500002
477 1 1 9.566790000000001 7.364518375707494 202.501923
478 1 2 9.566790000000001 7.364518375707494 204.449056875
479 1 1 11.161255 6.443953578744057 205.0981015
480 1 2 11.161255 6.443953578744057 207.045235375
481 1 1 7.972325000000001 10.126212766597805 0.0
482 1 2 7.972325000000001 10.126212766597805 1.947133875
483 1 1 9.566790000000001 9.205647969634368 2.5961785
484 1 2 9.566790000000001 9.205647969634368 4.543312375
485 1 1 7.972325000000001 10.126212766597805 5.192357
486 1 2 7.972325000000001 10.126212766597805 7.139490875
487 1 1 9.566790000000001 9.205647969634368 7.7885355
488 1 2 9.566790000000001 9.205647969634368 9.735669375
489 1 1 7.972325000000001 10.126212766597805 10.384714
490 1 2 7.972325000000001 10.126212766597805 12.331847875000001
491 1 1 9.566790000000001 9.205647969634368 12.980892500000001
492 1 2 9.566790000000001 9.205647969634368 14.928026375000002
493 1 1 7.972325000000001 10.126212766597805 15.577071
494 1 2 7.972325000000001 10.126212766597805 17.524204875
495 1 1 9.566790000000001 9.205647969634368 18.1732495
496 1 2 9.566790000000001 9.205647969634368 20.120383375
497 1 1 7.972325000000001 10.126212766597805 20.769428
498 1 2 7.972325000000001 10.126212766597805 22.716561875
499 1 1 9.566790000000001 9.205647969634368 23.365606500000002
500 1 2 9.566790000000001 9.205647969634368 25.312740375
501 1 1 7.972325000000001 10.126212766597805 25.961785000000003
502 1 2 7.972325000000001 10.126212766597805 27.908918875
503 1 1 9.566790000000001 9.205647969634368 28.557963500000003
504 1 2 9.566790000000001 9.205647969634368 30.505097375000002
505 1 1 7.972325000000001 10.126212766597805 31.154142
506 1 2 7.972325000000001 10.126212766597805 33.101275875
507 1 1 9.566790000000001 9.205647969634368 33.7503205
508 1 2 9.566790000000001 9.205647969634368 35.697454375
509 1 1 7.972325000000001 10.126212766597805 36.346499
510 1 2 7.972325000000001 10.126212766597805 38.293632875
511 1 1 9.566790000000001 9.205647969634368 38.9426775
512 1 2 9.566790000000001 9.205647969634368 40.889811375
513 1 1 7.972325000000001 10.126212766597805 41.538856
514 1 2 7.972325000000001 10.126212766597805 43.485989875
515 1 1 9.566790000000001 9.205647969634368 44.1350345
516 1 2 9.566790000000001 9.205647969634368 46.082168375