########### lammpsScapers.py > outToPositionsFile() 2024/08/02 14:50:28 ###########
25000 atoms

1 atom types

0.0 135.93225 xlo xhi
0.0 135.93225 ylo yhi
0.0 27.18645 zlo zhi

Masses

1 1

Atoms

1 1 0.00025424787605743404 -0.00037648464637680956 0.0004199645395802226
1 1 2.718643543228386 2.718425592203898 -0.00010594305024486106
1 1 2.7185201649175412 4.1101957221414964e-05 2.7187656621689156
1 1 0.00019377811094045683 2.718299185407296 2.71859736131934
1 1 1.3592690854572713 1.359388860569715 1.359380884557721
1 1 4.078079170414792 4.077937856071964 1.3592768265867066
1 1 4.0778722038980515 1.3593236181909045 4.0778237331334335
1 1 1.3594303248375812 4.077621929035482 4.077801534232884
1 1 -0.00010957021490298757 -0.0004958770614678087 5.437403928035982
1 1 2.7186545427286357 2.7183531084457773 5.437111644177911
1 1 2.718425752123938 -0.0004189155422409385 8.155768265867067
1 1 0.0002996399186708104 2.718125972013993 8.155757231384309
1 1 1.3593556621689156 1.3589871114442778 6.796630164917541
1 1 4.077788830584708 4.077689455272364 6.796432178910544
1 1 4.077644642678661 1.3591685957021489 9.515003508245877
1 1 1.359225667166417 4.077450634682659 9.515351869065467
1 1 8.172450814592468e-05 -0.0004575139745127202 10.874626536731634
1 1 2.71864976011994 2.71822784107946 10.874588455772114
1 1 2.718456976511744 -0.0003808862135932199 13.593097651174412
1 1 1.1869065446035165e-05 2.7181032983508246 13.593280509745128
1 1 1.3594533333333334 1.3589973863068465 12.233834982508746
1 1 4.07760219890055 4.077601874062968 12.233892603698152
1 1 4.077963718140929 1.3589260269865067 14.952512343828086
1 1 1.3592455022488756 4.077382488755622 14.952610044977511
1 1 -9.607696154034784e-05 -0.00030397301350149064 16.311728935532233
1 1 2.7185575462268865 2.717997216391804 16.311954572713642
1 1 2.718690484757621 -0.00034250589205407633 19.030650224887555
1 1 8.933033481639541e-05 2.7178857821089455 19.030307346326836
1 1 1.3591683458270865 1.3586343828085956 17.671545227386307
1 1 4.077785432283858 4.077797356321839 17.67116576711644
1 1 4.077998515742129 1.358730824587706 20.389951174412793
1 1 1.358878865567217 4.077100714642679 20.39003573213393
1 1 0.0001743586313193643 -0.0005428535732221462 21.74920619690155
1 1 2.7185491704147924 2.7179740579710145 21.749111744127937
1 1 2.719059375312344 -0.0001558255995566804 24.468130384807598
1 1 9.099882808593501e-05 2.718225147426287 24.46804832583708
1 1 1.359283083458271 1.3589824287856072 23.108865667166416
1 1 4.07792348325837 4.077705192403798 23.108628185907047
1 1 4.077972063968016 1.3591851274362818 25.827478860569716
1 1 1.3590427536231886 4.077691774112943 25.827354222888555
1 1 -0.0001705397301350331 5.43697551724138 0.00023213577476262348
1 1 2.718342883558221 8.155665477261369 -0.00010162418790571337
1 1 2.7185522538730633 5.4371198500749625 2.7186766966516744
1 1 0.00023244484197904036 8.155549150424788 2.7186685857071464
1 1 1.3590929585207396 6.796452068965517 1.3592453523238381
1 1 4.077916131934033 9.515047936031984 1.3593110544727636
1 1 4.07789135932034 6.796392248875562 4.077769545227386
1 1 1.3592633783108445 9.515053958020989 4.078081104447776
1 1 3.301557469771038e-05 5.436773598200899 5.437230754622688
1 1 2.718679970014992 8.155782338830585 5.437279565217391
1 1 2.718735027486257 5.436847726136931 8.155896476761619
1 1 2.436281857853828e-05 8.156103403298351 8.156093063468266
1 1 1.3594794852573715 6.7961063968016 6.796490939530235
1 1 4.077756666666667 9.515184732633683 6.796782853573213
1 1 4.0774953573213395 6.796389195402299 9.515459045477261
1 1 1.359229260369815 9.515224752623688 9.515211889055472
1 1 -0.00026374243243379447 5.436982728635682 10.87486391804098
1 1 2.7182782108945527 8.155861984007997 10.874479710144927
1 1 2.7185612543728137 5.437042443778111 13.593003848075963
1 1 -0.00014855072464570185 8.15583820089955 13.593243928035982
1 1 1.359160779610195 6.796157076461769 12.234119990004997
1 1 4.078037181409296 9.515145962018991 12.233950224887556
1 1 4.077769810094953 6.796395247376312 14.952471714142929
1 1 1.3589035732133932 9.515222888555723 14.952577611194403
1 1 6.184407794762592e-05 5.436566081959021 16.312052373813092
1 1 2.7185819590204896 8.155669105447277 16.311774212893553
1 1 2.718632383808096 5.436751699150425 19.03034492753623
1 1 -0.000175037481255913 8.155348520739631 19.030661069465268
1 1 1.3591110394802597 6.795951489255373 17.671143178410794
1 1 4.077635757121439 9.515047291354323 17.671333983008495
1 1 4.077551324337831 6.796385512243877 20.38992363818091
1 1 1.358986756621689 9.514985852073963 20.389881059470266
1 1 -0.00031596701649050374 5.437166851574213 21.749196701649176
1 1 2.7182234132933534 8.15569424287856 21.749605397301348
1 1 2.7184729885057473 5.437202393803099 24.467942978510745
1 1 -0.0001185657171447474 8.155764792603698 24.468212743628186
1 1 1.3588020139930037 6.796745967016491 23.108539780109943
1 1 4.077597626186907 9.515198445777111 23.10855392303848
1 1 4.07767327836082 6.796290139930035 25.827127786106946
1 1 1.3592011994003 9.515038410794602 25.8270824087956
1 1 -0.0001705397301350331 10.874365767116442 1.5005705545724068e-05
1 1 2.718765532233883 13.59295512243878 -0.00010248026726633608
1 1 2.718574632683658 10.874350974512744 2.718713688155922
1 1 0.00020886053758121387 13.59280939530235 2.718700274862569
1 1 1.359235912043978 12.233695852073962 1.3592687606196903
1 1 4.078053008495752 14.95260299850075 1.3593756421789105
1 1 4.077776006996502 12.23407716141929 4.078174302848575
1 1 1.35911035982009 14.952460569715143 4.078178195902049
1 1 0.00014587065612192002 10.874275812093954 5.437139955022489
1 1 2.718378895552224 13.593112993503249 5.437514832583708
1 1 2.718511304347826 10.874422988505748 8.156188095952023
1 1 -8.408295852291303e-05 13.593271364317841 8.15596867566217
1 1 1.359007371314343 12.233718490754622 6.796654917541229
1 1 4.077843538230884 14.95269035482259 6.79677528235882
1 1 4.07789976011994 12.233884257871065 9.515508345827087
1 1 1.3594219390304847 14.952630134932534 9.515388500749625
1 1 -9.194184992500354e-05 10.874600549725137 10.87473888055972
1 1 2.7186866866566715 13.593244377811095 10.874594352823587
1 1 2.7185538530734634 10.874436131934033 13.593083408295852
1 1 -0.00027148925539677293 13.592847026486757 13.593168415792103
1 1 1.3592049525237382 12.234035182408796 12.23384087956022
1 1 4.077895632183908 14.952558420789606 12.233990754622688
1 1 4.077476246876562 12.234050974512744 14.952597151424287
1 1 1.3592371864067965 14.95254027986007 14.952507146426786
1 1 -0.0001830334832675362 10.874532783608196 16.31234127936032
1 1 2.7183095252373812 13.593248525737131 16.312077861069465
1 1 2.718540499750125 10.874567216391805 19.030546476761618
1 1 4.235782808609603e-06 13.593124937531234 19.030621289355324
1 1 1.3591796201899051 12.233564267866067 17.671305747126436
1 1 4.0778576161919045 14.952611294352824 17.671135432283858
1 1 4.077884792603698 12.233567216391805 20.38975672163918
1 1 1.3592548075962019 14.952441629185408 20.389682258870565
1 1 -0.00012856071964506555 10.87436471764118 21.74947096451774
1 1 2.7185585907046477 13.59317516241879 21.748918540729637
1 1 2.7185386206896553 10.874333183408297 24.46781859070465
1 1 4.485257369424289e-05 13.592999950024987 24.467950374812595
1 1 1.3593260419790105 12.233620339830084 23.10875727136432
1 1 4.077838535732134 14.952165867066467 23.108468115942028
1 1 4.0777805847076465 12.233800099950026 25.827047376311842
1 1 1.3592120539730135 14.95223928035982 25.82748135932034
1 1 3.508117671165156e-05 16.311927336331834 0.000180016930034943
1 1 2.7187476211894053 19.030323088455773 0.0007100199900058612
1 1 2.718787756121939 16.311901949025486 2.718923793103448
1 1 8.688311169414986e-05 19.030532983508245 2.7188694902548725
1 1 1.3591904497751124 17.671133983008495 1.3596012293853075
1 1 4.07776940029985 20.390327786106948 1.3596928085957023
1 1 4.077598430784608 17.671345827086455 4.078311469265367
1 1 1.3589130334832582 20.38988935532234 4.078027046476762
1 1 0.0001363068465707329 16.311926386806597 5.43756087956022
1 1 2.718651744127936 19.030713693153423 5.437452828585707
1 1 2.718806656671664 16.31213223388306 8.156071899050474
1 1 -0.00020337401783115938 19.030556771614194 8.156088285857072
1 1 1.3592108645677161 17.671419540229884 6.796819045477261
1 1 4.077962473763119 20.389872113943028 6.7968494402798605
1 1 4.077918810594703 17.671207496251874 9.515325017491254
1 1 1.3591800449775113 20.3899203898051 9.515342953523238
1 1 0.00015430357866066252 16.311885957021488 10.874700949525238
1 1 2.71854948025987 19.03073588205897 10.874813643178411
1 1 2.718520064967516 16.311800899550224 13.593498000999501
1 1 -0.00035556096795601524 19.030216291854074 13.593502898550724
1 1 1.3591941529235383 17.671626586706648 12.233994552723638
1 1 4.078031604197901 20.389892653673165 12.233850174912543
1 1 4.077825997001499 17.671145977011495 14.952714342828585
1 1 1.359255732133933 20.39007596201899 14.952742428785607
1 1 -0.00029206748520743675 16.3118944027986 16.31203968015992
1 1 2.7187836381809096 19.03040259870065 16.312224787606198
1 1 2.718361669165417 16.311940029985006 19.03032543728136
1 1 -4.6226886638578435e-06 19.03017381309345 19.030708495752123
1 1 1.3594024337831083 17.671007096451774 17.671034932533733
1 1 4.077755932033983 20.390265317341328 17.67133588205897
1 1 4.0779310394802595 17.671050374812594 20.389762468765618
1 1 1.3592423688155921 20.389928135932035 20.3896756121939
1 1 -4.710171964018167e-05 16.311859770114943 21.749118540729636
1 1 2.7183695302348827 19.030595702148926 21.749342978510743
1 1 2.718603188405797 16.312022538730634 24.468038980509746
1 1 -6.669364777620035e-05 19.030516691654174 24.468165967016493
1 1 1.35924824087956 17.671031584207896 23.108545327336333
1 1 4.077769150424787 20.389772863568215 23.10873103448276
1 1 4.078054172913543 17.671133383308344 25.827493903048477
1 1 1.3592028535732135 20.389922088955522 25.827408545727135
1 1 0.00011146578365815382 21.74912683658171 0.0003380957418740796
1 1 2.7185423788105947 24.46799260369815 0.0005515492253849175
1 1 2.7184597701149427 21.749145427286358 2.7190601099450276
1 1 -9.393160921855603e-07 24.467858270864568 2.7185732983508246
1 1 1.3595742028985507 23.108591454272865 1.3596829585207397
1 1 4.077776001999 25.82729620189905 1.3598310744627686
1 1 4.077804022988506 23.108461219390303 4.078326131934033
1 1 1.35925924037981 25.827156621689156 4.078453888055972
1 1 0.00010044064687667054 21.749050124937533 5.437579290354823
1 1 2.7186040629685158 24.467966016991504 5.437526216891555
1 1 2.718621579210395 21.749259570214893 8.15617852573713
1 1 -0.0001240490069964184 24.46771419290355 8.156028770614693
1 1 1.3594033583208396 23.10853673163418 6.7968596001999
1 1 4.0777409495252375 25.827177461269365 6.797058365817091
1 1 4.07797768115942 23.108425687156423 9.515523893053473
1 1 1.3593493653173414 25.82736271864068 9.515400549725138
1 1 -0.00022932546771615991 21.7492151924038 10.874689555222389
1 1 2.7184128935532232 24.46804807596202 10.874765617191404
1 1 2.7185234282858572 21.749049775112443 13.593208195902049
1 1 -0.00036350021949024466 24.467783058470765 13.593044127936032
1 1 1.3590921339330335 23.108419290354824 12.234014492753623
1 1 4.077740849575212 25.827135932033983 12.234377411294354
1 1 4.078183938030985 23.108395702148925 14.952755972013993
1 1 1.3591968615692154 25.82693443278361 14.95279620189905
1 1 -8.6581709155098e-05 21.749433783108447 16.312139730134934
1 1 2.7185988155922036 24.467884707646178 16.312013343328335
1 1 2.7184785107446277 21.74917051474263 19.030683658170915
1 1 2.771864012994854e-05 24.467715242378812 19.030371014492754
1 1 1.3593562518740627 23.10846186906547 17.67160459770115
1 1 4.077831634182909 25.826997551224387 17.67153403298351
1 1 4.07748624187906 23.10812283858071 20.38996011994003
1 1 1.359174567716142 25.826995202398802 20.390003198400798
1 1 -1.0048113643010281e-05 21.749030434782608 21.74926011994003
1 1 2.7187065017491254 24.467545627186407 21.749285457271363
1 1 2.718820974512744 21.749079860069966 24.468221739130435
1 1 -2.36288519640665e-05 24.467665817091454 24.468177511244377
1 1 1.3592290704647676 23.108468015992003 23.108705297351325
1 1 4.077803353323338 25.827001299350325 23.108648775612195
1 1 4.077886391804098 23.108375612193903 25.827522888555723
1 1 1.3592407596201899 25.826984457771115 25.82765632183908
1 1 -0.00016804097953126984 27.18614532733633 0.00038340541844066045
1 1 2.7184109095452276 29.904902298850576 0.0005238856125437258
1 1 2.7184332133933036 27.186511144427786 2.719255692153923
1 1 -0.0003414542728705783 29.905097551224387 2.71891015992004
1 1 1.3590696051974014 28.545596001999 1.3598625187406297
1 1 4.078098645677161 31.26454147926037 1.3594461769115442
1 1 4.078126986506747 28.546294502748626 4.078451589205398
1 1 1.359100544727636 31.26432323838081 4.078477156421789
1 1 -0.0003254622688757536 27.186538180909544 5.43750367816092
1 1 2.718559105447276 29.905432233883058 5.437575032483758
1 1 2.718425032483758 27.18667096451774 8.156274912543727
1 1 -7.558720639622152e-05 29.90496856571714 8.156393698150925
1 1 1.3592366366816593 28.54609515242379 6.796897626186906
1 1 4.077747156421789 31.264445527236383 6.7970989805097455
1 1 4.077754367816092 28.545846476761618 9.515558340829585
1 1 1.3589488405797103 31.26432323838081 9.515691744127937
1 1 -0.00029094767911044513 27.186420889555222 10.874848075962019
1 1 2.7182984707646174 29.905260819590204 10.875093753123439
1 1 2.7185968465767116 27.186285807096453 13.593681809095452
1 1 -5.9560364967625734e-05 29.904998050974513 13.593463768115942
1 1 1.359251264367816 28.545552423788106 12.233833833083459
1 1 4.0777786056971514 31.264172213893055 12.234611444277862
1 1 4.078090489755122 28.545559470264866 14.953056871564218
1 1 1.3592750374812594 31.264275912043978 14.953005697151424
1 1 -0.0002523495859070475 27.186257821089455 16.31196311844078
1 1 2.7189777861069464 29.905031034482757 16.31224147926037
1 1 2.71883035982009 27.186283058470764 19.03069540229885
1 1 0.00010632183906977843 29.90512523738131 19.03082743628186
1 1 1.359292883558221 28.54548815592204 17.671561769115442
1 1 4.077966511744128 31.264068865567218 17.67155177411294
1 1 4.0778118940529735 28.54575872063968 20.390005897051473
1 1 1.3592695052473764 31.264048575712145 20.390271664167916
1 1 -0.0002894802598802926 27.18623908045977 21.74933263368316
1 1 2.7184290254872563 29.905003948025985 21.749495552223888
1 1 2.7186261769115445 27.186454572713643 24.46804507746127
1 1 -4.8407454922586024e-05 29.904748975512245 24.46825207396302
1 1 1.3592416191904049 28.54565952023988 23.1089848075962
1 1 4.077767481259371 31.264072263868066 23.10874907546227
1 1 4.07776964017991 28.545618140929534 25.827264067966016
1 1 1.3591063218390804 31.264191954022987 25.827588955522238
1 1 -0.0004106553290003645 32.62379220389805 0.0005796351824081114
1 1 2.718667311344328 35.341821589205395 0.0004604447776088705
1 1 2.718412988505747 32.623767616191905 2.719150854572714
1 1 -1.5117441279244304e-05 35.34237251374313 2.7192937431284356
1 1 1.3590262168915543 33.983173663168415 1.3597691104447778
1 1 4.0778284507746125 36.70156366816592 1.3596535532233884
1 1 4.077747926036982 33.983240829585206 4.07865632183908
1 1 1.3592490104947526 36.70201444277861 4.078502463768116
1 1 -0.00037348086821589266 32.623654222888554 5.4377772863568214
1 1 2.718454612693653 35.34239865067466 5.437882813593204
1 1 2.718243853073463 32.62356941529235 8.156331299350326
1 1 -0.00029197901051247754 35.3421968015992 8.156519370314843
1 1 1.3592906996501748 33.98310784607696 6.797132628685657
1 1 4.07783047976012 36.70170219890055 6.7971206846576715
1 1 4.077607926036982 33.982807996002 9.5158852023988
1 1 1.3589696451774114 36.70147991004498 9.516005237381309
1 1 -0.00039965507661166716 32.623767216391805 10.87506891554223
1 1 2.7185875862068967 35.342247626186904 10.875243728135931
1 1 2.71874808095952 32.62394847576212 13.593924587706146
1 1 0.00014430284855393438 35.34256976511744 13.593902348825587
1 1 1.3590992203898051 33.983037981009495 12.234666566716642
1 1 4.0781994652673665 36.70141774112943 12.234640229885057
1 1 4.078045602198901 33.9828047976012 14.953156021989006
1 1 1.3593985857071464 36.701704047976015 14.952922788605697
1 1 0.00021826586706197304 32.62358995502249 16.31198215892054
1 1 2.7187807996002 35.34217391304348 16.31233848075962
1 1 2.7187011294352823 32.62349090454773 19.03095692153923
1 1 -1.9722827816620603e-06 35.34246296851574 19.030931534232884
1 1 1.3596680109945027 33.982861669165416 17.67176171914043
1 1 4.078022828585707 36.70171859070465 17.671744377811095
1 1 4.0777758670664666 33.982771014492755 20.390132183908047
1 1 1.3593776661669166 36.70165337331334 20.389868615692155
1 1 0.00013830584705942783 32.62319895052474 21.749418090954524
1 1 2.718533833083458 35.34227726136932 21.74929740129935
1 1 2.7186559370314844 32.62378505747127 24.46841984007996
1 1 5.4347826079492734e-05 35.34235862068966 24.468092103948027
1 1 1.3592741679160418 33.98309165417292 23.10865707146427
1 1 4.077891444277861 36.70146256871564 23.108561069465267
1 1 4.0778461219390305 33.98267436281859 25.8277992003998
1 1 1.3592110694652675 36.7014992003998 25.827798150924536
1 1 5.534732633805106e-05 38.06079010494753 0.0004887005470764726
1 1 2.718593148425787 40.77956251874063 0.00046607209595206367
1 1 2.7186251424287855 38.06088675662169 2.719114902548726
1 1 0.00017878560717576875 40.77974652673663 2.7189951774112946
1 1 1.35945187906047 39.42022523738131 1.359783548225887
1 1 4.078199900049975 42.138719340329835 1.3597232533733135
1 1 4.078057116441779 39.42016101949025 4.078290699650175
1 1 1.3594278610694652 42.138999900049974 4.078326621689156
1 1 -0.00021529683708145647 38.06118100949525 5.437849070464767
1 1 2.718858335832084 40.77944422788606 5.4376378060969515
1 1 2.7185600949525237 38.0610323838081 8.156601124437781
1 1 -0.00011006996501805588 40.77978660669665 8.156707316341828
1 1 1.3589569565217392 39.42026511744128 6.797293323338331
1 1 4.078117496251874 42.13896306846577 6.7972738930534735
1 1 4.078103523238381 39.42018850574713 9.516109950024987
1 1 1.3592323688155923 42.13890094952524 9.515937776111944
1 1 -3.960519740076052e-05 38.06107871064468 10.87513948025987
1 1 2.718480674662669 40.779587306346826 10.874921389305348
1 1 2.7188888405797105 38.06073333333333 13.593885207396301
1 1 -0.00016204397800834158 40.77946826586707 13.594159820089954
1 1 1.3590053973013494 39.42005407296352 12.234665267366317
1 1 4.078123888055972 42.138900249875064 12.234681209395303
1 1 4.077819565217391 39.420085407296355 14.953313343328336
1 1 1.3593846176911546 42.139026636681656 14.95317776111944
1 1 0.0001562968515713692 38.06101174412794 16.31226126936532
1 1 2.718751604197901 40.779653673163416 16.31221224387806
1 1 2.7186624937531234 38.06081064467766 19.03089595202399
1 1 0.0005610944527632 40.779426636681656 19.030916141929037
1 1 1.3596340479760118 39.42035507246377 17.67164972513743
1 1 4.077953733133433 42.138864317841076 17.671669165417292
1 1 4.077924392803598 39.42021744127936 20.390537181409297
1 1 1.3594596701649175 42.13902778610694 20.390166466766615
1 1 0.0003611944027852587 38.06059135432284 21.749619890054973
1 1 2.7188316541729134 40.77964237881059 21.74941389305347
1 1 2.718969865067466 38.06088035982009 24.468052773613195
1 1 0.000400674662671463 40.779570164917544 24.468197051474263
1 1 1.3595665167416293 39.420415392303845 23.109069865067465
1 1 4.077904257871064 42.139235982009 23.109211794102947
1 1 4.077863488255872 39.42029860069965 25.82750924537731
1 1 1.3594539730134931 42.13887696151924 25.827455672163918
1 1 8.333333332188886e-05 43.4983504247876 0.00011510951469266562
1 1 2.7191729135432285 46.21731184407796 0.00048718550424793616
1 1 2.71891031984008 43.49806181909045 2.7192208045977013
1 1 4.872563721391998e-06 46.21667951024488 2.7189330384807593
1 1 1.3593747026486758 44.857519790104945 1.3594148625687157
1 1 4.078347796101949 47.57651944027986 1.3597264317841078
1 1 4.078276286856572 44.857671264367816 4.0783360219890055
1 1 1.3596120189905048 47.57606281859071 4.078488150924538
1 1 0.00040968896331831234 43.49816331834083 5.437858190904548
1 1 2.718582888555722 46.216932733633186 5.438057656171914
1 1 2.7186539430284857 43.4983652173913 8.156372613693154
1 1 0.00030222388804190814 46.21708860569715 8.156516626686656
1 1 1.3591602148925537 44.857414742628684 6.7972431984008
1 1 4.077493268365817 47.576301549225384 6.797156471764118
1 1 4.077974867566217 44.857644127936034 9.515941304347827
1 1 1.3592134932533733 47.57673528235882 9.516257966016992
1 1 6.434282857981088e-05 43.49821189405297 10.875348425787106
1 1 2.7184053373313346 46.21727531234383 10.874955972013993
1 1 2.7188756571714143 43.498336181909046 13.593987206396802
1 1 -0.00031596701649050374 46.21682333833083 13.593665367316342
1 1 1.3593225987006496 44.857689555222386 12.23464347826087
1 1 4.077813323338331 47.57639780109945 12.234828685657172
1 1 4.078120734632684 44.857500699650174 14.953053373313343
1 1 1.359089295352324 47.576621389305345 14.95337716141929
1 1 0.00022726136930373286 43.49843793103448 16.312090104947526
1 1 2.7188322088955523 46.21710594702649 16.312258820589705
1 1 2.7187414442778612 43.49859650174913 19.03112988505747
1 1 0.00012876684537730526 46.21695152423788 19.031021589205398
1 1 1.35944980009995 44.85781564217891 17.671924537731133
1 1 4.0778584807596205 47.57662888555722 17.671863668165916
1 1 4.078290059970015 44.85772298850575 20.390155872063968
1 1 1.3591973813093454 47.5766043978011 20.390327336331833
1 1 -0.0001540479760251401 43.49842523738131 21.749471714142928
1 1 2.7188393853073465 46.2171904047976 21.74967581209395
1 1 2.7187919890054975 43.498631134432785 24.468177111444277
1 1 0.0002892303847943367 46.217426786606694 24.46817461269365
1 1 1.359182723638181 44.85784997501249 23.108923588205897
1 1 4.078385362318841 47.576729385307345 23.10943708145927
1 1 4.078226751624188 44.857840929535236 25.827559820089956
1 1 1.3592905447276362 47.57638775612194 25.827873663168415
1 1 -5.0599700159636996e-05 48.93566136931534 0.0006944923012892346
1 1 2.718756786606696 51.65425947026487 0.0008897138977010111
1 1 2.7187116991504245 48.93557656171914 2.719007456271864
1 1 0.00011381809093791162 51.65438390804598 2.7190412343828085
1 1 1.359455812093953 50.29509140429785 1.3599030484757622
1 1 4.078331859070465 53.013855022488755 1.3596882308845577
1 1 4.077941354322839 50.2951431784108 4.078362743628186
1 1 1.3594585907046475 53.01373488255872 4.078655252373813
1 1 0.00022976011993591783 48.9356592203898 5.437687796101949
1 1 2.7185968115942027 51.65437156421789 5.437869035482259
1 1 2.7184485407296353 48.93566706646676 8.156423948025987
1 1 -0.00037693653175097097 51.65443883058471 8.156437421289356
1 1 1.359349820089955 50.29538050974513 6.797457006496751
1 1 4.078092858570715 53.01377316341829 6.797200409795103
1 1 4.077952128935532 50.29512898550725 9.515777886056972
1 1 1.3589209695152424 53.01376021989005 9.516009540229884
1 1 -0.00014905047476077016 48.935723188405795 10.87525027486257
1 1 2.7184653523238382 51.65437311344328 10.875045877061469
1 1 2.7185645377311345 48.93575392303848 13.593815142428786
1 1 -5.351907413044671e-05 51.654438880559724 13.593916491754122
1 1 1.358948695652174 50.29510434782609 12.234683758120939
1 1 4.078233978010995 53.01388015992004 12.234533183408296
1 1 4.078065032483758 50.29485012493753 14.953383808095952
1 1 1.359593243378311 53.0134796101949 14.953147276361818
1 1 -0.00024750124939032503 48.935794952523736 16.31245907046477
1 1 2.7186730934532735 51.65416046976512 16.312450924537732
1 1 2.718643768115942 48.935760019990006 19.03114387806097
1 1 -0.00020752123938905243 51.654126686656674 19.031172663668166
1 1 1.3592101449275362 50.29479330334833 17.672168815592205
1 1 4.078051809095452 53.01347511244378 17.671827336331834
1 1 4.077923603198401 50.294865317341326 20.3906167916042
1 1 1.3593455672163919 53.01368610694653 20.390654022988507
1 1 -0.00014905047476077016 48.935523388305846 21.749536931534234
1 1 2.7186618190904546 51.654237981009494 21.749769265367316
1 1 2.718933528235882 48.93581034482759 24.468408745627187
1 1 -1.2618690675481048e-05 51.654270014992505 24.468643828085956
1 1 1.3592264067966018 50.295297451274365 23.109044577711146
1 1 4.078011124437781 53.01383668165917 23.10891984007996
1 1 4.078278610694652 50.2951143928036 25.827912093953024
1 1 1.3594813943028485 53.01374227886057 25.82774262868566
1 1 -0.00023350824588419528 54.37319605197401 0.0007314614234382594
1 1 2.7189022388805593 57.091609645177414 0.0007223770149224831
1 1 2.7189568965517243 54.37315647176412 2.719381344327836
1 1 -0.0001375685748726055 57.091701299350326 2.7193694252873564
1 1 1.3597355572213894 55.73241069465267 1.3600298750624689
1 1 4.078058225887056 58.45077581209395 1.3602548575712143
1 1 4.078241004497751 55.73212648675662 4.078703443278361
1 1 1.3594717841079462 58.450712793603195 4.078836941529235
1 1 -9.807596202904278e-05 54.37277676161919 5.43787311844078
1 1 2.718748380809595 57.091448025987006 5.438106501749125
1 1 2.718591984007996 54.37296686656671 8.156539345327337
1 1 4.185407294698962e-05 57.091613293353326 8.156622798600699
1 1 1.3590854122938532 55.73224867566217 6.7972188105947025
1 1 4.077893268365817 58.45089700149925 6.797314052973514
1 1 4.07798171914043 55.732291304347825 9.515909505247377
1 1 1.3593003998000999 58.45093808095952 9.51596531734133
1 1 -0.00037693653175097097 54.37298070964518 10.875327786106947
1 1 2.7188700699650177 57.09179700149925 10.875212943528236
1 1 2.718650619690155 54.373030334832585 13.594214992503748
1 1 3.68565717110414e-05 57.091544427786104 13.594113243378311
1 1 1.3590229435282357 55.7322748125937 12.234617691154423
1 1 4.078051534232883 58.450854172913544 12.234795502248875
1 1 4.078112108945527 55.73232613693153 14.953291254372814
1 1 1.3593299500249874 58.45095702148925 14.95313628185907
1 1 -1.4117941049107685e-05 54.37286676661669 16.312639430284857
1 1 2.7187422138930533 57.091489505247374 16.312647026486758
1 1 2.718827391304348 54.37286351824088 19.031493103448277
1 1 0.00025855375952028165 57.09141344327836 19.03134307846077
1 1 1.3591416341829086 55.732393103448274 17.671870614692654
1 1 4.0779017091454275 58.451107146426786 17.671805197401298
1 1 4.078223188405797 55.732166466766614 20.390793903048475
1 1 1.3594767916041979 58.450835282358824 20.390732833583208
1 1 0.00011902044222875108 54.37311449275362 21.749786106946527
1 1 2.7187268065967016 57.09160284857571 21.750122688655672
1 1 2.7189498950524738 54.373104447776115 24.468608545727136
1 1 -0.00017753623188809797 57.09158215892054 24.468870464767615
1 1 1.3592554622688653 55.732703998001 23.109389455272364
1 1 4.07809836081959 58.45088190904548 23.10963848075962
1 1 4.07809504247876 55.73245112443778 25.82803343328336
1 1 1.3595019790104945 58.45077461269366 25.828046026986506
1 1 6.88405797006908e-05 59.81018255872064 0.0008467170314842773
1 1 2.7185533133433286 62.52851869065467 0.0010761898381309257
1 1 2.7188396251874063 59.80998595702149 2.719696146926537
1 1 -0.00017253873065214975 62.52872948525737 2.7194438130934535
1 1 1.3590646976511742 61.16949630184907 1.3603622988505748
1 1 4.078433443278361 63.88785767116442 1.3604862618690656
1 1 4.078129995002499 61.16939330334833 4.079021269365318
1 1 1.3593714742628686 63.88798595702149 4.079045257371314
1 1 5.534732633805106e-05 59.80996711644178 5.4383572663668165
1 1 2.718583648175912 62.52846651674163 5.438219010494753
1 1 2.71879912043978 59.81011609195402 8.15684536231884
1 1 0.00022626186904517454 62.52887796101949 8.156652663668165
1 1 1.3593964267866068 61.169394502748624 6.797916271864068
1 1 4.078425857071465 63.88795912043978 6.797787366316841
1 1 4.078180509745128 61.16936901549225 9.516204312843579
1 1 1.3594639030484756 63.88796916541729 9.515849735132434
1 1 0.00023925537229274596 59.81028335832084 10.87524187906047
1 1 2.7188825587206398 62.52870589705147 10.875247576211894
1 1 2.71867684157921 59.81006751624188 13.593971164417791
1 1 0.0002292603697924278 62.52883253373313 13.594225487256372
1 1 1.3593595852073963 61.16925752123938 12.234704347826087
1 1 4.078225577211394 63.88811889055472 12.234795902048976
1 1 4.077874847576212 61.16940454772614 14.953111294352823
1 1 1.3594574862568716 63.88796156921539 14.953519090454773
1 1 0.00029772613692102823 59.80990794602699 16.312669015492254
1 1 2.7190545777111446 62.52891114442779 16.312777911044478
1 1 2.7187812793603197 59.81023433283358 19.031710444777612
1 1 0.00010332333832252516 62.528910144927536 19.03117236381809
1 1 1.3591346676661669 61.16925792103948 17.672107496251876
1 1 4.078308155922039 63.8881171914043 17.671945777111443
1 1 4.078355292353823 61.16949190404797 20.390596651674162
1 1 1.3596198150924539 63.887868865567214 20.39072023988006
1 1 -0.00014155422289263697 59.809957821089455 21.749936731634183
1 1 2.718818215892054 62.528699650174914 21.749863168415793
1 1 2.7186666216891555 59.81012108945527 24.468623888055973
1 1 -0.00026359044382809685 62.52868070964518 24.468645377311343
1 1 1.3594453423288355 61.169513093453276 23.109233633183408
1 1 4.07814063968016 63.8879924037981 23.10925087456272
1 1 4.078219610194902 61.16936051974013 25.828072913543227
1 1 1.3592109645177413 63.88790784607696 25.828092203898052
1 1 -0.00028285782418790983 65.24751634182908 0.0008218640679658051
1 1 2.7188909145427287 67.9654664167916 0.0006342078960521746
1 1 2.7190476661669165 65.24709305347326 2.719479985007496
1 1 0.0001076063415292348 67.96614292853573 2.7191909345327336
1 1 1.3595320539730136 66.6065371814093 1.3599860169915041
1 1 4.078053988005997 69.32523913043478 1.3600030034982509
1 1 4.078159190404798 66.606595952024 4.0791699250374815
1 1 1.3591953573213393 69.325227986007 4.078562488755622
1 1 0.00020677161418802825 65.24705167416292 5.4378435182408795
1 1 2.7186842978510746 67.96591304347827 5.437906946526737