########### generatePositions.py 2024/05/03 20:42:31 ###########
12400 atoms

2 atom types

0.0 159.44650000000001 xlo xhi
0.0 5.52338878178062 ylo yhi
0.0 160.96306700000002 zlo zhi

Masses

1 26.981539
2 14.0067
Atoms

1 1 1 4.440892098500626e-16 1.8411295939268735 0.0
2 1 2 4.440892098500626e-16 1.8411295939268735 1.947133875
3 1 1 1.5944650000000002 0.9205647969634367 2.5961785
4 1 2 1.5944650000000002 0.9205647969634367 4.543312375
5 1 1 4.440892098500626e-16 1.8411295939268735 5.192357
6 1 2 4.440892098500626e-16 1.8411295939268735 7.139490875
7 1 1 1.5944650000000002 0.9205647969634367 7.7885355
8 1 2 1.5944650000000002 0.9205647969634367 9.735669375
9 1 1 4.440892098500626e-16 1.8411295939268735 10.384714
10 1 2 4.440892098500626e-16 1.8411295939268735 12.331847875000001
11 1 1 1.5944650000000002 0.9205647969634367 12.980892500000001
12 1 2 1.5944650000000002 0.9205647969634367 14.928026375000002
13 1 1 4.440892098500626e-16 1.8411295939268735 15.577071
14 1 2 4.440892098500626e-16 1.8411295939268735 17.524204875
15 1 1 1.5944650000000002 0.9205647969634367 18.1732495
16 1 2 1.5944650000000002 0.9205647969634367 20.120383375
17 1 1 4.440892098500626e-16 1.8411295939268735 20.769428
18 1 2 4.440892098500626e-16 1.8411295939268735 22.716561875
19 1 1 1.5944650000000002 0.9205647969634367 23.365606500000002
20 1 2 1.5944650000000002 0.9205647969634367 25.312740375
21 1 1 4.440892098500626e-16 1.8411295939268735 25.961785000000003
22 1 2 4.440892098500626e-16 1.8411295939268735 27.908918875
23 1 1 1.5944650000000002 0.9205647969634367 28.557963500000003
24 1 2 1.5944650000000002 0.9205647969634367 30.505097375000002
25 1 1 4.440892098500626e-16 1.8411295939268735 31.154142
26 1 2 4.440892098500626e-16 1.8411295939268735 33.101275875
27 1 1 1.5944650000000002 0.9205647969634367 33.7503205
28 1 2 1.5944650000000002 0.9205647969634367 35.697454375
29 1 1 4.440892098500626e-16 1.8411295939268735 36.346499
30 1 2 4.440892098500626e-16 1.8411295939268735 38.293632875
31 1 1 1.5944650000000002 0.9205647969634367 38.9426775
32 1 2 1.5944650000000002 0.9205647969634367 40.889811375
33 1 1 4.440892098500626e-16 1.8411295939268735 41.538856
34 1 2 4.440892098500626e-16 1.8411295939268735 43.485989875
35 1 1 1.5944650000000002 0.9205647969634367 44.1350345
36 1 2 1.5944650000000002 0.9205647969634367 46.082168375
37 1 1 4.440892098500626e-16 1.8411295939268735 46.731213000000004
38 1 2 4.440892098500626e-16 1.8411295939268735 48.678346875
39 1 1 1.5944650000000002 0.9205647969634367 49.327391500000004
40 1 2 1.5944650000000002 0.9205647969634367 51.274525375
41 1 1 4.440892098500626e-16 1.8411295939268735 51.923570000000005
42 1 2 4.440892098500626e-16 1.8411295939268735 53.870703875000004
43 1 1 1.5944650000000002 0.9205647969634367 54.519748500000006
44 1 2 1.5944650000000002 0.9205647969634367 56.466882375000004
45 1 1 4.440892098500626e-16 1.8411295939268735 57.115927000000006
46 1 2 4.440892098500626e-16 1.8411295939268735 59.063060875000005
47 1 1 1.5944650000000002 0.9205647969634367 59.71210550000001
48 1 2 1.5944650000000002 0.9205647969634367 61.659239375000006
49 1 1 4.440892098500626e-16 1.8411295939268735 62.308284
50 1 2 4.440892098500626e-16 1.8411295939268735 64.255417875
51 1 1 1.5944650000000002 0.9205647969634367 64.9044625
52 1 2 1.5944650000000002 0.9205647969634367 66.851596375
53 1 1 4.440892098500626e-16 1.8411295939268735 67.500641
54 1 2 4.440892098500626e-16 1.8411295939268735 69.44777487500001
55 1 1 1.5944650000000002 0.9205647969634367 70.0968195
56 1 2 1.5944650000000002 0.9205647969634367 72.043953375
57 1 1 4.440892098500626e-16 1.8411295939268735 72.692998
58 1 2 4.440892098500626e-16 1.8411295939268735 74.64013187500001
59 1 1 1.5944650000000002 0.9205647969634367 75.2891765
60 1 2 1.5944650000000002 0.9205647969634367 77.236310375
61 1 1 4.440892098500626e-16 1.8411295939268735 77.885355
62 1 2 4.440892098500626e-16 1.8411295939268735 79.83248887500001
63 1 1 1.5944650000000002 0.9205647969634367 80.4815335
64 1 2 1.5944650000000002 0.9205647969634367 82.428667375
65 1 1 4.440892098500626e-16 1.8411295939268735 83.077712
66 1 2 4.440892098500626e-16 1.8411295939268735 85.02484587500001
67 1 1 1.5944650000000002 0.9205647969634367 85.6738905
68 1 2 1.5944650000000002 0.9205647969634367 87.621024375
69 1 1 4.440892098500626e-16 1.8411295939268735 88.270069
70 1 2 4.440892098500626e-16 1.8411295939268735 90.21720287500001
71 1 1 1.5944650000000002 0.9205647969634367 90.8662475
72 1 2 1.5944650000000002 0.9205647969634367 92.813381375
73 1 1 4.440892098500626e-16 1.8411295939268735 93.46242600000001
74 1 2 4.440892098500626e-16 1.8411295939268735 95.40955987500001
75 1 1 1.5944650000000002 0.9205647969634367 96.0586045
76 1 2 1.5944650000000002 0.9205647969634367 98.005738375
77 1 1 4.440892098500626e-16 1.8411295939268735 98.65478300000001
78 1 2 4.440892098500626e-16 1.8411295939268735 100.60191687500001
79 1 1 1.5944650000000002 0.9205647969634367 101.2509615
80 1 2 1.5944650000000002 0.9205647969634367 103.19809537500001
81 1 1 4.440892098500626e-16 1.8411295939268735 103.84714000000001
82 1 2 4.440892098500626e-16 1.8411295939268735 105.79427387500002
83 1 1 1.5944650000000002 0.9205647969634367 106.4433185
84 1 2 1.5944650000000002 0.9205647969634367 108.39045237500001
85 1 1 4.440892098500626e-16 1.8411295939268735 109.03949700000001
86 1 2 4.440892098500626e-16 1.8411295939268735 110.98663087500002
87 1 1 1.5944650000000002 0.9205647969634367 111.6356755
88 1 2 1.5944650000000002 0.9205647969634367 113.58280937500001
89 1 1 4.440892098500626e-16 1.8411295939268735 114.23185400000001
90 1 2 4.440892098500626e-16 1.8411295939268735 116.17898787500002
91 1 1 1.5944650000000002 0.9205647969634367 116.8280325
92 1 2 1.5944650000000002 0.9205647969634367 118.77516637500001
93 1 1 4.440892098500626e-16 1.8411295939268735 119.42421100000001
94 1 2 4.440892098500626e-16 1.8411295939268735 121.37134487500002
95 1 1 1.5944650000000002 0.9205647969634367 122.02038950000001
96 1 2 1.5944650000000002 0.9205647969634367 123.96752337500001
97 1 1 4.440892098500626e-16 1.8411295939268735 124.616568
98 1 2 4.440892098500626e-16 1.8411295939268735 126.563701875
99 1 1 1.5944650000000002 0.9205647969634367 127.2127465
100 1 2 1.5944650000000002 0.9205647969634367 129.159880375
101 1 1 4.440892098500626e-16 1.8411295939268735 129.80892500000002
102 1 2 4.440892098500626e-16 1.8411295939268735 131.756058875
103 1 1 1.5944650000000002 0.9205647969634367 132.40510350000002
104 1 2 1.5944650000000002 0.9205647969634367 134.35223737500002
105 1 1 4.440892098500626e-16 1.8411295939268735 135.001282
106 1 2 4.440892098500626e-16 1.8411295939268735 136.948415875
107 1 1 1.5944650000000002 0.9205647969634367 137.5974605
108 1 2 1.5944650000000002 0.9205647969634367 139.544594375
109 1 1 4.440892098500626e-16 1.8411295939268735 140.19363900000002
110 1 2 4.440892098500626e-16 1.8411295939268735 142.140772875
111 1 1 1.5944650000000002 0.9205647969634367 142.78981750000003
112 1 2 1.5944650000000002 0.9205647969634367 144.73695137500002
113 1 1 4.440892098500626e-16 1.8411295939268735 145.385996
114 1 2 4.440892098500626e-16 1.8411295939268735 147.333129875
115 1 1 1.5944650000000002 0.9205647969634367 147.9821745
116 1 2 1.5944650000000002 0.9205647969634367 149.929308375
117 1 1 4.440892098500626e-16 1.8411295939268735 150.57835300000002
118 1 2 4.440892098500626e-16 1.8411295939268735 152.525486875
119 1 1 1.5944650000000002 0.9205647969634367 153.17453150000003
120 1 2 1.5944650000000002 0.9205647969634367 155.12166537500002
121 1 1 4.440892098500626e-16 1.8411295939268735 155.77071
122 1 2 4.440892098500626e-16 1.8411295939268735 157.717843875
123 1 1 1.5944650000000002 0.9205647969634367 158.36688850000002
124 1 2 1.5944650000000002 0.9205647969634367 160.314022375
125 1 1 157.85203500000003 4.602823984817183 0.0
126 1 2 157.85203500000003 4.602823984817183 1.947133875
127 1 1 8.881784197001252e-16 3.682259187853747 2.5961785
128 1 2 8.881784197001252e-16 3.682259187853747 4.543312375
129 1 1 157.85203500000003 4.602823984817183 5.192357
130 1 2 157.85203500000003 4.602823984817183 7.139490875
131 1 1 8.881784197001252e-16 3.682259187853747 7.7885355
132 1 2 8.881784197001252e-16 3.682259187853747 9.735669375
133 1 1 157.85203500000003 4.602823984817183 10.384714
134 1 2 157.85203500000003 4.602823984817183 12.331847875000001
135 1 1 8.881784197001252e-16 3.682259187853747 12.980892500000001
136 1 2 8.881784197001252e-16 3.682259187853747 14.928026375000002
137 1 1 157.85203500000003 4.602823984817183 15.577071
138 1 2 157.85203500000003 4.602823984817183 17.524204875
139 1 1 8.881784197001252e-16 3.682259187853747 18.1732495
140 1 2 8.881784197001252e-16 3.682259187853747 20.120383375
141 1 1 157.85203500000003 4.602823984817183 20.769428
142 1 2 157.85203500000003 4.602823984817183 22.716561875
143 1 1 8.881784197001252e-16 3.682259187853747 23.365606500000002
144 1 2 8.881784197001252e-16 3.682259187853747 25.312740375
145 1 1 157.85203500000003 4.602823984817183 25.961785000000003
146 1 2 157.85203500000003 4.602823984817183 27.908918875
147 1 1 8.881784197001252e-16 3.682259187853747 28.557963500000003
148 1 2 8.881784197001252e-16 3.682259187853747 30.505097375000002
149 1 1 157.85203500000003 4.602823984817183 31.154142
150 1 2 157.85203500000003 4.602823984817183 33.101275875
151 1 1 8.881784197001252e-16 3.682259187853747 33.7503205
152 1 2 8.881784197001252e-16 3.682259187853747 35.697454375
153 1 1 157.85203500000003 4.602823984817183 36.346499
154 1 2 157.85203500000003 4.602823984817183 38.293632875
155 1 1 8.881784197001252e-16 3.682259187853747 38.9426775
156 1 2 8.881784197001252e-16 3.682259187853747 40.889811375
157 1 1 157.85203500000003 4.602823984817183 41.538856
158 1 2 157.85203500000003 4.602823984817183 43.485989875
159 1 1 8.881784197001252e-16 3.682259187853747 44.1350345
160 1 2 8.881784197001252e-16 3.682259187853747 46.082168375
161 1 1 157.85203500000003 4.602823984817183 46.731213000000004
162 1 2 157.85203500000003 4.602823984817183 48.678346875
163 1 1 8.881784197001252e-16 3.682259187853747 49.327391500000004
164 1 2 8.881784197001252e-16 3.682259187853747 51.274525375
165 1 1 157.85203500000003 4.602823984817183 51.923570000000005
166 1 2 157.85203500000003 4.602823984817183 53.870703875000004
167 1 1 8.881784197001252e-16 3.682259187853747 54.519748500000006
168 1 2 8.881784197001252e-16 3.682259187853747 56.466882375000004
169 1 1 157.85203500000003 4.602823984817183 57.115927000000006
170 1 2 157.85203500000003 4.602823984817183 59.063060875000005
171 1 1 8.881784197001252e-16 3.682259187853747 59.71210550000001
172 1 2 8.881784197001252e-16 3.682259187853747 61.659239375000006
173 1 1 157.85203500000003 4.602823984817183 62.308284
174 1 2 157.85203500000003 4.602823984817183 64.255417875
175 1 1 8.881784197001252e-16 3.682259187853747 64.9044625
176 1 2 8.881784197001252e-16 3.682259187853747 66.851596375
177 1 1 157.85203500000003 4.602823984817183 67.500641
178 1 2 157.85203500000003 4.602823984817183 69.44777487500001
179 1 1 8.881784197001252e-16 3.682259187853747 70.0968195
180 1 2 8.881784197001252e-16 3.682259187853747 72.043953375
181 1 1 157.85203500000003 4.602823984817183 72.692998
182 1 2 157.85203500000003 4.602823984817183 74.64013187500001
183 1 1 8.881784197001252e-16 3.682259187853747 75.2891765
184 1 2 8.881784197001252e-16 3.682259187853747 77.236310375
185 1 1 157.85203500000003 4.602823984817183 77.885355
186 1 2 157.85203500000003 4.602823984817183 79.83248887500001
187 1 1 8.881784197001252e-16 3.682259187853747 80.4815335
188 1 2 8.881784197001252e-16 3.682259187853747 82.428667375
189 1 1 157.85203500000003 4.602823984817183 83.077712
190 1 2 157.85203500000003 4.602823984817183 85.02484587500001
191 1 1 8.881784197001252e-16 3.682259187853747 85.6738905
192 1 2 8.881784197001252e-16 3.682259187853747 87.621024375
193 1 1 157.85203500000003 4.602823984817183 88.270069
194 1 2 157.85203500000003 4.602823984817183 90.21720287500001
195 1 1 8.881784197001252e-16 3.682259187853747 90.8662475
196 1 2 8.881784197001252e-16 3.682259187853747 92.813381375
197 1 1 157.85203500000003 4.602823984817183 93.46242600000001
198 1 2 157.85203500000003 4.602823984817183 95.40955987500001
199 1 1 8.881784197001252e-16 3.682259187853747 96.0586045
200 1 2 8.881784197001252e-16 3.682259187853747 98.005738375
201 1 1 157.85203500000003 4.602823984817183 98.65478300000001
202 1 2 157.85203500000003 4.602823984817183 100.60191687500001
203 1 1 8.881784197001252e-16 3.682259187853747 101.2509615
204 1 2 8.881784197001252e-16 3.682259187853747 103.19809537500001
205 1 1 157.85203500000003 4.602823984817183 103.84714000000001
206 1 2 157.85203500000003 4.602823984817183 105.79427387500002
207 1 1 8.881784197001252e-16 3.682259187853747 106.4433185
208 1 2 8.881784197001252e-16 3.682259187853747 108.39045237500001
209 1 1 157.85203500000003 4.602823984817183 109.03949700000001
210 1 2 157.85203500000003 4.602823984817183 110.98663087500002
211 1 1 8.881784197001252e-16 3.682259187853747 111.6356755
212 1 2 8.881784197001252e-16 3.682259187853747 113.58280937500001
213 1 1 157.85203500000003 4.602823984817183 114.23185400000001
214 1 2 157.85203500000003 4.602823984817183 116.17898787500002
215 1 1 8.881784197001252e-16 3.682259187853747 116.8280325
216 1 2 8.881784197001252e-16 3.682259187853747 118.77516637500001
217 1 1 157.85203500000003 4.602823984817183 119.42421100000001
218 1 2 157.85203500000003 4.602823984817183 121.37134487500002
219 1 1 8.881784197001252e-16 3.682259187853747 122.02038950000001
220 1 2 8.881784197001252e-16 3.682259187853747 123.96752337500001
221 1 1 157.85203500000003 4.602823984817183 124.616568
222 1 2 157.85203500000003 4.602823984817183 126.563701875
223 1 1 8.881784197001252e-16 3.682259187853747 127.2127465
224 1 2 8.881784197001252e-16 3.682259187853747 129.159880375
225 1 1 157.85203500000003 4.602823984817183 129.80892500000002
226 1 2 157.85203500000003 4.602823984817183 131.756058875
227 1 1 8.881784197001252e-16 3.682259187853747 132.40510350000002
228 1 2 8.881784197001252e-16 3.682259187853747 134.35223737500002
229 1 1 157.85203500000003 4.602823984817183 135.001282
230 1 2 157.85203500000003 4.602823984817183 136.948415875
231 1 1 8.881784197001252e-16 3.682259187853747 137.5974605
232 1 2 8.881784197001252e-16 3.682259187853747 139.544594375
233 1 1 157.85203500000003 4.602823984817183 140.19363900000002
234 1 2 157.85203500000003 4.602823984817183 142.140772875
235 1 1 8.881784197001252e-16 3.682259187853747 142.78981750000003
236 1 2 8.881784197001252e-16 3.682259187853747 144.73695137500002
237 1 1 157.85203500000003 4.602823984817183 145.385996
238 1 2 157.85203500000003 4.602823984817183 147.333129875
239 1 1 8.881784197001252e-16 3.682259187853747 147.9821745
240 1 2 8.881784197001252e-16 3.682259187853747 149.929308375
241 1 1 157.85203500000003 4.602823984817183 150.57835300000002
242 1 2 157.85203500000003 4.602823984817183 152.525486875
243 1 1 8.881784197001252e-16 3.682259187853747 153.17453150000003
244 1 2 8.881784197001252e-16 3.682259187853747 155.12166537500002
245 1 1 157.85203500000003 4.602823984817183 155.77071
246 1 2 157.85203500000003 4.602823984817183 157.717843875
247 1 1 8.881784197001252e-16 3.682259187853747 158.36688850000002
248 1 2 8.881784197001252e-16 3.682259187853747 160.314022375
249 1 1 3.1889300000000005 1.8411295939268735 0.0
250 1 2 3.1889300000000005 1.8411295939268735 1.947133875
251 1 1 4.7833950000000005 0.9205647969634367 2.5961785
252 1 2 4.7833950000000005 0.9205647969634367 4.543312375
253 1 1 3.1889300000000005 1.8411295939268735 5.192357
254 1 2 3.1889300000000005 1.8411295939268735 7.139490875
255 1 1 4.7833950000000005 0.9205647969634367 7.7885355
256 1 2 4.7833950000000005 0.9205647969634367 9.735669375
257 1 1 3.1889300000000005 1.8411295939268735 10.384714
258 1 2 3.1889300000000005 1.8411295939268735 12.331847875000001
259 1 1 4.7833950000000005 0.9205647969634367 12.980892500000001
260 1 2 4.7833950000000005 0.9205647969634367 14.928026375000002
261 1 1 3.1889300000000005 1.8411295939268735 15.577071
262 1 2 3.1889300000000005 1.8411295939268735 17.524204875
263 1 1 4.7833950000000005 0.9205647969634367 18.1732495
264 1 2 4.7833950000000005 0.9205647969634367 20.120383375
265 1 1 3.1889300000000005 1.8411295939268735 20.769428
266 1 2 3.1889300000000005 1.8411295939268735 22.716561875
267 1 1 4.7833950000000005 0.9205647969634367 23.365606500000002
268 1 2 4.7833950000000005 0.9205647969634367 25.312740375
269 1 1 3.1889300000000005 1.8411295939268735 25.961785000000003
270 1 2 3.1889300000000005 1.8411295939268735 27.908918875
271 1 1 4.7833950000000005 0.9205647969634367 28.557963500000003
272 1 2 4.7833950000000005 0.9205647969634367 30.505097375000002
273 1 1 3.1889300000000005 1.8411295939268735 31.154142
274 1 2 3.1889300000000005 1.8411295939268735 33.101275875
275 1 1 4.7833950000000005 0.9205647969634367 33.7503205
276 1 2 4.7833950000000005 0.9205647969634367 35.697454375
277 1 1 3.1889300000000005 1.8411295939268735 36.346499
278 1 2 3.1889300000000005 1.8411295939268735 38.293632875
279 1 1 4.7833950000000005 0.9205647969634367 38.9426775
280 1 2 4.7833950000000005 0.9205647969634367 40.889811375
281 1 1 3.1889300000000005 1.8411295939268735 41.538856
282 1 2 3.1889300000000005 1.8411295939268735 43.485989875
283 1 1 4.7833950000000005 0.9205647969634367 44.1350345
284 1 2 4.7833950000000005 0.9205647969634367 46.082168375
285 1 1 3.1889300000000005 1.8411295939268735 46.731213000000004
286 1 2 3.1889300000000005 1.8411295939268735 48.678346875
287 1 1 4.7833950000000005 0.9205647969634367 49.327391500000004
288 1 2 4.7833950000000005 0.9205647969634367 51.274525375
289 1 1 3.1889300000000005 1.8411295939268735 51.923570000000005
290 1 2 3.1889300000000005 1.8411295939268735 53.870703875000004
291 1 1 4.7833950000000005 0.9205647969634367 54.519748500000006
292 1 2 4.7833950000000005 0.9205647969634367 56.466882375000004
293 1 1 3.1889300000000005 1.8411295939268735 57.115927000000006
294 1 2 3.1889300000000005 1.8411295939268735 59.063060875000005
295 1 1 4.7833950000000005 0.9205647969634367 59.71210550000001
296 1 2 4.7833950000000005 0.9205647969634367 61.659239375000006
297 1 1 3.1889300000000005 1.8411295939268735 62.308284
298 1 2 3.1889300000000005 1.8411295939268735 64.255417875
299 1 1 4.7833950000000005 0.9205647969634367 64.9044625
300 1 2 4.7833950000000005 0.9205647969634367 66.851596375
301 1 1 3.1889300000000005 1.8411295939268735 67.500641
302 1 2 3.1889300000000005 1.8411295939268735 69.44777487500001
303 1 1 4.7833950000000005 0.9205647969634367 70.0968195
304 1 2 4.7833950000000005 0.9205647969634367 72.043953375
305 1 1 3.1889300000000005 1.8411295939268735 72.692998
306 1 2 3.1889300000000005 1.8411295939268735 74.64013187500001
307 1 1 4.7833950000000005 0.9205647969634367 75.2891765
308 1 2 4.7833950000000005 0.9205647969634367 77.236310375
309 1 1 3.1889300000000005 1.8411295939268735 77.885355
310 1 2 3.1889300000000005 1.8411295939268735 79.83248887500001
311 1 1 4.7833950000000005 0.9205647969634367 80.4815335
312 1 2 4.7833950000000005 0.9205647969634367 82.428667375
313 1 1 3.1889300000000005 1.8411295939268735 83.077712
314 1 2 3.1889300000000005 1.8411295939268735 85.02484587500001
315 1 1 4.7833950000000005 0.9205647969634367 85.6738905
316 1 2 4.7833950000000005 0.9205647969634367 87.621024375
317 1 1 3.1889300000000005 1.8411295939268735 88.270069
318 1 2 3.1889300000000005 1.8411295939268735 90.21720287500001
319 1 1 4.7833950000000005 0.9205647969634367 90.8662475
320 1 2 4.7833950000000005 0.9205647969634367 92.813381375
321 1 1 3.1889300000000005 1.8411295939268735 93.46242600000001
322 1 2 3.1889300000000005 1.8411295939268735 95.40955987500001
323 1 1 4.7833950000000005 0.9205647969634367 96.0586045
324 1 2 4.7833950000000005 0.9205647969634367 98.005738375
325 1 1 3.1889300000000005 1.8411295939268735 98.65478300000001
326 1 2 3.1889300000000005 1.8411295939268735 100.60191687500001
327 1 1 4.7833950000000005 0.9205647969634367 101.2509615
328 1 2 4.7833950000000005 0.9205647969634367 103.19809537500001
329 1 1 3.1889300000000005 1.8411295939268735 103.84714000000001
330 1 2 3.1889300000000005 1.8411295939268735 105.79427387500002
331 1 1 4.7833950000000005 0.9205647969634367 106.4433185
332 1 2 4.7833950000000005 0.9205647969634367 108.39045237500001
333 1 1 3.1889300000000005 1.8411295939268735 109.03949700000001
334 1 2 3.1889300000000005 1.8411295939268735 110.98663087500002
335 1 1 4.7833950000000005 0.9205647969634367 111.6356755
336 1 2 4.7833950000000005 0.9205647969634367 113.58280937500001
337 1 1 3.1889300000000005 1.8411295939268735 114.23185400000001
338 1 2 3.1889300000000005 1.8411295939268735 116.17898787500002
339 1 1 4.7833950000000005 0.9205647969634367 116.8280325
340 1 2 4.7833950000000005 0.9205647969634367 118.77516637500001
341 1 1 3.1889300000000005 1.8411295939268735 119.42421100000001
342 1 2 3.1889300000000005 1.8411295939268735 121.37134487500002
343 1 1 4.7833950000000005 0.9205647969634367 122.02038950000001
344 1 2 4.7833950000000005 0.9205647969634367 123.96752337500001
345 1 1 3.1889300000000005 1.8411295939268735 124.616568
346 1 2 3.1889300000000005 1.8411295939268735 126.563701875
347 1 1 4.7833950000000005 0.9205647969634367 127.2127465
348 1 2 4.7833950000000005 0.9205647969634367 129.159880375
349 1 1 3.1889300000000005 1.8411295939268735 129.80892500000002
350 1 2 3.1889300000000005 1.8411295939268735 131.756058875
351 1 1 4.7833950000000005 0.9205647969634367 132.40510350000002
352 1 2 4.7833950000000005 0.9205647969634367 134.35223737500002
353 1 1 3.1889300000000005 1.8411295939268735 135.001282
354 1 2 3.1889300000000005 1.8411295939268735 136.948415875
355 1 1 4.7833950000000005 0.9205647969634367 137.5974605
356 1 2 4.7833950000000005 0.9205647969634367 139.544594375
357 1 1 3.1889300000000005 1.8411295939268735 140.19363900000002
358 1 2 3.1889300000000005 1.8411295939268735 142.140772875
359 1 1 4.7833950000000005 0.9205647969634367 142.78981750000003
360 1 2 4.7833950000000005 0.9205647969634367 144.73695137500002
361 1 1 3.1889300000000005 1.8411295939268735 145.385996
362 1 2 3.1889300000000005 1.8411295939268735 147.333129875
363 1 1 4.7833950000000005 0.9205647969634367 147.9821745
364 1 2 4.7833950000000005 0.9205647969634367 149.929308375
365 1 1 3.1889300000000005 1.8411295939268735 150.57835300000002
366 1 2 3.1889300000000005 1.8411295939268735 152.525486875
367 1 1 4.7833950000000005 0.9205647969634367 153.17453150000003
368 1 2 4.7833950000000005 0.9205647969634367 155.12166537500002
369 1 1 3.1889300000000005 1.8411295939268735 155.77071
370 1 2 3.1889300000000005 1.8411295939268735 157.717843875
371 1 1 4.7833950000000005 0.9205647969634367 158.36688850000002
372 1 2 4.7833950000000005 0.9205647969634367 160.314022375
373 1 1 1.594465000000001 4.602823984817183 0.0
374 1 2 1.594465000000001 4.602823984817183 1.947133875
375 1 1 3.188930000000001 3.682259187853747 2.5961785
376 1 2 3.188930000000001 3.682259187853747 4.543312375
377 1 1 1.594465000000001 4.602823984817183 5.192357
378 1 2 1.594465000000001 4.602823984817183 7.139490875
379 1 1 3.188930000000001 3.682259187853747 7.7885355
380 1 2 3.188930000000001 3.682259187853747 9.735669375
381 1 1 1.594465000000001 4.602823984817183 10.384714
382 1 2 1.594465000000001 4.602823984817183 12.331847875000001
383 1 1 3.188930000000001 3.682259187853747 12.980892500000001
384 1 2 3.188930000000001 3.682259187853747 14.928026375000002
385 1 1 1.594465000000001 4.602823984817183 15.577071
386 1 2 1.594465000000001 4.602823984817183 17.524204875
387 1 1 3.188930000000001 3.682259187853747 18.1732495
388 1 2 3.188930000000001 3.682259187853747 20.120383375
389 1 1 1.594465000000001 4.602823984817183 20.769428
390 1 2 1.594465000000001 4.602823984817183 22.716561875
391 1 1 3.188930000000001 3.682259187853747 23.365606500000002
392 1 2 3.188930000000001 3.682259187853747 25.312740375
393 1 1 1.594465000000001 4.602823984817183 25.961785000000003
394 1 2 1.594465000000001 4.602823984817183 27.908918875
395 1 1 3.188930000000001 3.682259187853747 28.557963500000003
396 1 2 3.188930000000001 3.682259187853747 30.505097375000002
397 1 1 1.594465000000001 4.602823984817183 31.154142
398 1 2 1.594465000000001 4.602823984817183 33.101275875
399 1 1 3.188930000000001 3.682259187853747 33.7503205
400 1 2 3.188930000000001 3.682259187853747 35.697454375
401 1 1 1.594465000000001 4.602823984817183 36.346499
402 1 2 1.594465000000001 4.602823984817183 38.293632875
403 1 1 3.188930000000001 3.682259187853747 38.9426775
404 1 2 3.188930000000001 3.682259187853747 40.889811375
405 1 1 1.594465000000001 4.602823984817183 41.538856
406 1 2 1.594465000000001 4.602823984817183 43.485989875
407 1 1 3.188930000000001 3.682259187853747 44.1350345
408 1 2 3.188930000000001 3.682259187853747 46.082168375
409 1 1 1.594465000000001 4.602823984817183 46.731213000000004
410 1 2 1.594465000000001 4.602823984817183 48.678346875
411 1 1 3.188930000000001 3.682259187853747 49.327391500000004
412 1 2 3.188930000000001 3.682259187853747 51.274525375
413 1 1 1.594465000000001 4.602823984817183 51.923570000000005
414 1 2 1.594465000000001 4.602823984817183 53.870703875000004
415 1 1 3.188930000000001 3.682259187853747 54.519748500000006
416 1 2 3.188930000000001 3.682259187853747 56.466882375000004
417 1 1 1.594465000000001 4.602823984817183 57.115927000000006
418 1 2 1.594465000000001 4.602823984817183 59.063060875000005
419 1 1 3.188930000000001 3.682259187853747 59.71210550000001
420 1 2 3.188930000000001 3.682259187853747 61.659239375000006
421 1 1 1.594465000000001 4.602823984817183 62.308284
422 1 2 1.594465000000001 4.602823984817183 64.255417875
423 1 1 3.188930000000001 3.682259187853747 64.9044625
424 1 2 3.188930000000001 3.682259187853747 66.851596375
425 1 1 1.594465000000001 4.602823984817183 67.500641
426 1 2 1.594465000000001 4.602823984817183 69.44777487500001
427 1 1 3.188930000000001 3.682259187853747 70.0968195
428 1 2 3.188930000000001 3.682259187853747 72.043953375
429 1 1 1.594465000000001 4.602823984817183 72.692998
430 1 2 1.594465000000001 4.602823984817183 74.64013187500001
431 1 1 3.188930000000001 3.682259187853747 75.2891765
432 1 2 3.188930000000001 3.682259187853747 77.236310375
433 1 1 1.594465000000001 4.602823984817183 77.885355
434 1 2 1.594465000000001 4.602823984817183 79.83248887500001
435 1 1 3.188930000000001 3.682259187853747 80.4815335
436 1 2 3.188930000000001 3.682259187853747 82.428667375
437 1 1 1.594465000000001 4.602823984817183 83.077712
438 1 2 1.594465000000001 4.602823984817183 85.02484587500001
439 1 1 3.188930000000001 3.682259187853747 85.6738905
440 1 2 3.188930000000001 3.682259187853747 87.621024375
441 1 1 1.594465000000001 4.602823984817183 88.270069
442 1 2 1.594465000000001 4.602823984817183 90.21720287500001
443 1 1 3.188930000000001 3.682259187853747 90.8662475
444 1 2 3.188930000000001 3.682259187853747 92.813381375
445 1 1 1.594465000000001 4.602823984817183 93.46242600000001
446 1 2 1.594465000000001 4.602823984817183 95.40955987500001
447 1 1 3.188930000000001 3.682259187853747 96.0586045
448 1 2 3.188930000000001 3.682259187853747 98.005738375
449 1 1 1.594465000000001 4.602823984817183 98.65478300000001
450 1 2 1.594465000000001 4.602823984817183 100.60191687500001
451 1 1 3.188930000000001 3.682259187853747 101.2509615
452 1 2 3.188930000000001 3.682259187853747 103.19809537500001
453 1 1 1.594465000000001 4.602823984817183 103.84714000000001
454 1 2 1.594465000000001 4.602823984817183 105.79427387500002
455 1 1 3.188930000000001 3.682259187853747 106.4433185
456 1 2 3.188930000000001 3.682259187853747 108.39045237500001
457 1 1 1.594465000000001 4.602823984817183 109.03949700000001
458 1 2 1.594465000000001 4.602823984817183 110.98663087500002
459 1 1 3.188930000000001 3.682259187853747 111.6356755
460 1 2 3.188930000000001 3.682259187853747 113.58280937500001
461 1 1 1.594465000000001 4.602823984817183 114.23185400000001
462 1 2 1.594465000000001 4.602823984817183 116.17898787500002
463 1 1 3.188930000000001 3.682259187853747 116.8280325
464 1 2 3.188930000000001 3.682259187853747 118.77516637500001
465 1 1 1.594465000000001 4.602823984817183 119.42421100000001
466 1 2 1.594465000000001 4.602823984817183 121.37134487500002
467 1 1 3.188930000000001 3.682259187853747 122.02038950000001
468 1 2 3.188930000000001 3.682259187853747 123.96752337500001
469 1 1 1.594465000000001 4.602823984817183 124.616568
470 1 2 1.594465000000001 4.602823984817183 126.563701875
471 1 1 3.188930000000001 3.682259187853747 127.2127465
472 1 2 3.188930000000001 3.682259187853747 129.159880375
473 1 1 1.594465000000001 4.602823984817183 129.80892500000002
474 1 2 1.594465000000001 4.602823984817183 131.756058875
475 1 1 3.188930000000001 3.682259187853747 132.40510350000002
476 1 2 3.188930000000001 3.682259187853747 134.35223737500002
477 1 1 1.594465000000001 4.602823984817183 135.001282
478 1 2 1.594465000000001 4.602823984817183 136.948415875
479 1 1 3.188930000000001 3.682259187853747 137.5974605
480 1 2 3.188930000000001 3.682259187853747 139.544594375
481 1 1 1.594465000000001 4.602823984817183 140.19363900000002
482 1 2 1.594465000000001 4.602823984817183 142.140772875
483 1 1 3.188930000000001 3.682259187853747 142.78981750000003
484 1 2 3.188930000000001 3.682259187853747 144.73695137500002
485 1 1 1.594465000000001 4.602823984817183 145.385996
486 1 2 1.594465000000001 4.602823984817183 147.333129875
487 1 1 3.188930000000001 3.682259187853747 147.9821745
488 1 2 3.188930000000001 3.682259187853747 149.929308375
489 1 1 1.594465000000001 4.602823984817183 150.57835300000002
490 1 2 1.594465000000001 4.602823984817183 152.525486875
491 1 1 3.188930000000001 3.682259187853747 153.17453150000003
492 1 2 3.188930000000001 3.682259187853747 155.12166537500002