########### lammpsScapers.py > outToPositionsFile() 2024/08/03 19:12:30 ###########
12400 atoms

2 atom types

0.0 159.44650000000001 xlo xhi
0.0 5.52338878178062 ylo yhi
0.0 160.96306700000002 zlo zhi

Masses

1 1
2 2

Atoms

1 1 0.00019782874120006372 1.839717135 -0.011487500000015416
1 2 -1.6500000015184924e-05 1.839851545 1.95860111
1 1 1.59498006 0.9193870215 2.58533842
1 2 1.5948048750000001 0.9189637145 4.553987855
1 1 5.599999997230043e-05 1.8403045400000002 5.18120015
1 2 -0.0003580000000056316 1.839885215 7.149674375
1 1 1.5953832700000001 0.9186536430000001 7.777680425
1 2 1.595617675 0.9188320799999999 9.74705178
1 1 0.0006939999999815427 1.83972634 10.37409375
1 2 0.0011227072138999886 1.840146635 12.3426316
1 1 1.59552207 0.9194825830000001 12.9704327
1 2 1.595408455 0.9197021795 14.9398408
1 1 0.0009509999999863794 1.83981475 15.5667638
1 2 0.0005359999999825504 1.839810985 17.5359945
1 1 1.5950852350000002 0.9195750735000001 18.1624705
1 2 1.5954576249999999 0.9192813209999998 20.13187405
1 1 0.0004433277463449757 1.84083077 20.759127
1 2 0.00013844337649994432 1.8403032849999998 22.72763235
1 1 1.5948861399999998 0.919438359 23.35521515
1 2 1.594493305 0.919835492 25.3240111
1 1 0.0010834999999929096 1.8399815 25.9512326
1 2 0.0007704781130749849 1.840225765 27.9199727
1 1 1.5953639800000001 0.920085246 28.54684915
1 2 1.5955538 0.919732971 30.51623775
1 1 0.0008762347884999841 1.84020089 31.14370655
1 2 0.0008602786690999759 1.84010687 33.1124517
1 1 1.595577895 0.9197927345000001 33.739754
1 2 1.59572965 0.9201917089999998 35.7088411
1 1 0.0008385051987000666 1.840694655 36.33612315
1 2 0.000947365908500114 1.83986735 38.3041901
1 1 1.5956166400000003 0.9197285815 38.9317923
1 2 1.59599594 0.9199620055 40.90108585
1 1 0.001301499999982525 1.841140395 41.52843945
1 2 0.001146999999974696 1.84051514 43.49721655
1 1 1.59594958 0.9202774625 44.1245689
1 2 1.5962332350000001 0.9201737155 46.0930437
1 1 0.001783999999986463 1.84041465 46.720354
1 2 0.002131499999990183 1.8405544049999998 48.69001685
1 1 1.59654887 0.91991973 49.3171742
1 2 1.5972498099999999 0.9198192359999999 51.2861382
1 1 0.0027644672517000354 1.84100427 51.9130368
1 2 0.002422625141450005 1.8405791150000002 53.8812848
1 1 1.59686552 0.9201143840000001 54.50880855
1 2 1.59639951 0.9206376915 56.47684
1 1 0.0025107850587999733 1.840409255 57.10458905
1 2 0.002610499999974536 1.84060926 59.07383985
1 1 1.596416145 0.920881055 59.70077215
1 2 1.596409125 0.920865554 61.6705595
1 1 0.002358999999984235 1.840490375 62.2975061
1 2 0.0019737731538500055 1.840440435 64.2670776
1 1 1.59673697 0.920038455 64.8933733
1 2 1.596499105 0.9203201690000001 66.86368585
1 1 0.0025386610841500127 1.8408696850000001 67.49005585
1 2 0.0023519999999734864 1.8411298200000001 69.4591588
1 1 1.5965353599999998 0.920569418 70.0861965
1 2 1.5962345549999999 0.9208209629999999 72.05578245
1 1 0.00161724103149994 1.841385095 72.68220645
1 2 0.0017715398720000164 1.84117357 74.65193135
1 1 1.5962363949999998 0.9200678970000002 75.27878295
1 2 1.5959759949999999 0.9202016345 77.24771305
1 1 0.000828999999981761 1.8415582050000001 77.87539275
1 2 0.0013774999999895954 1.84137137 79.84391575
1 1 1.595685345 0.9206228670000001 80.4712144
1 2 1.595766985 0.920898283 82.4399372
1 1 0.001170999999999367 1.8420031599999998 83.06693585
1 2 0.0018264999999928477 1.841204785 85.03585005
1 1 1.595981425 0.9208272559999999 85.6633099
1 2 1.5952483800000001 0.9205707365 87.63251805
1 1 0.0017599999999902138 1.84102604 88.25970235
1 2 0.0015419999999721767 1.8413349 90.22884105
1 1 1.59590996 0.9199504649999998 90.8555977
1 2 1.595681375 0.920724222 92.8250297
1 1 0.0008144999999899483 1.8414737949999997 93.45163075
1 2 0.0007564999999942756 1.841203435 95.42135210000001
1 1 1.594879695 0.9200137285 96.04854485
1 2 1.5948305249999999 0.9206047304999999 98.01691075
1 1 0.0006864999999720567 1.8412201149999998 98.64398845
1 2 0.0011174871986999908 1.8412480949999999 100.613137
1 1 1.594721815 0.9213601705 101.239805
1 2 1.5944094950000003 0.9209373160000001 103.208626
1 1 -0.00011800000001471744 1.8413575850000001 103.8360285
1 2 6.749999997168743e-05 1.8411727349999998 105.8054595
1 1 1.59396318 0.9203474165000001 106.432098
1 2 1.59432057 0.9206475785000001 108.4019985
1 1 -0.0008608654864400017 1.841577505 109.028584
1 2 -0.001174500000018952 1.841350685 110.9976945
1 1 1.59366826 0.920110805 111.624589
1 2 1.59332996 0.920382893 113.593755
1 1 -0.000646842348049988 1.8411773 114.2212785
1 2 -0.0005725000000040836 1.841083745 116.190217
1 1 1.59279524 0.9209059645000001 116.817258
1 2 1.59255084 0.920339393 118.7864435
1 1 -0.0013537714719099592 1.84189304 119.4130855
1 2 -0.0013164396511998744 1.8415350299999997 121.3827105
1 1 1.59304723 0.92040318 122.0090185
1 2 1.59271285 0.9201400325 123.97887
1 1 -0.001857247539499997 1.841190765 124.6055215
1 2 -0.0017847575632999949 1.8413344249999999 126.5758555
1 1 1.592670145 0.9204147464999999 127.201665
1 2 1.59267767 0.9204293995 129.172279
1 1 -0.001982223852499909 1.8414875600000002 129.7989575
1 2 -0.001723500000025524 1.84128636 131.7681875
1 1 1.592784325 0.920751871 132.3949075
1 2 1.5929953449999998 0.920976318 134.3648555
1 1 -0.001805500000017446 1.8401070500000003 134.992061
1 2 -0.0019340000000056534 1.8404554250000003 136.9614165
1 1 1.59281543 0.9202926075 137.58803
1 2 1.593319925 0.9205313509999999 139.55668
1 1 -0.0017724266045000166 1.84056938 140.1838895
1 2 -0.0015850548360000199 1.840433285 142.1536785
1 1 1.592478875 0.9200784550000001 142.7800465
1 2 1.59260511 0.919838083 144.7488955
1 1 -0.0014600000000086766 1.84039465 145.376267
1 2 -0.0008671019028500815 1.8403197199999999 147.345167
1 1 1.59316803 0.919182648 147.9710915
1 2 1.59381841 0.9189179545 149.94178
1 1 -0.0007130582260999122 1.8399211199999999 150.5679265
1 2 -0.000759987352849982 1.84034439 152.5369745
1 1 1.593459755 0.9197729134999999 153.1638715
1 2 1.59360505 0.9200993014999999 155.1326235
1 1 -0.0005050000000039745 1.8402576800000001 155.7596945
1 2 -0.00018946230944601877 1.840041155 157.7290615
1 1 1.594655335 0.9190283620000002 158.355235
1 2 1.594432395 0.9193519610000002 160.325096
1 1 157.852433 4.60177619 -0.0109023332920051
1 2 157.852289 4.601655395 1.958082305
1 1 -3.061894014999653e-05 3.680786875 2.58490237
1 2 2.0499999976664185e-05 3.68078044 4.554491345
1 1 157.852766 4.601086605 5.18103024
1 2 157.852908 4.601592485 7.1505144949999995
1 1 0.00040949999998929343 3.68110751 7.77795132
1 2 0.0009449999999731062 3.68095078 9.746392
1 1 157.852338 4.60115611 10.37472695
1 2 157.852637 4.601183025 12.343305
1 1 0.00044899999997483064 3.68110746 12.97090315
1 2 0.0005264999999781139 3.68101018 14.93924405
1 1 157.8535765 4.60155524 15.5673049
1 2 157.8527285 4.60153411 17.536016150000002
1 1 0.0005574999999851116 3.680810955 18.1631295
1 2 0.000506847931500052 3.68090103 20.131641000000002
1 1 157.852815 4.602371795 20.75867225
1 2 157.852557 4.6023389550000005 22.7284803
1 1 0.0004076021272000144 3.680861695 23.3549352
1 2 0.0009541256897499517 3.68099482 25.3243913
1 1 157.8525145 4.60227762 25.9505497
1 2 157.852803 4.60249901 27.920685
1 1 0.0006530082843499855 3.68181901 28.5471777
1 2 0.001205866494530014 3.68233017 30.51610225
1 1 157.8525825 4.601884875 31.1434363
1 2 157.852567 4.60199248 33.1122012
1 1 0.0005751512301229306 3.681642835 33.7400201
1 2 0.0006029529466999445 3.6817257700000003 35.7085403
1 1 157.8528395 4.601799375 36.3358974
1 2 157.852842 4.60215689 38.30408875
1 1 0.0011718967062499253 3.6814498700000002 38.9320826
1 2 0.0012119565092249922 3.68126047 40.9010121
1 1 157.853751 4.6026832650000005 41.5276606
1 2 157.85391 4.603167565 43.4973952
1 1 0.0013126169577499514 3.68202122 44.12416505
1 2 0.0013346638644999957 3.682045985 46.09343395
1 1 157.853902 4.602139565 46.72021675
1 2 157.8538615 4.602360255 48.6894495
1 1 0.0022039999999776683 3.6814727449999998 49.31684115
1 2 0.0025875648369998727 3.6819120549999997 51.2859889
1 1 157.8543255 4.602174025 51.91251625
1 2 157.8544995 4.60205413 53.88168985
1 1 0.002230999999994765 3.68187287 54.50848575
1 2 0.0022282178674000123 3.6816203300000003 56.47771605
1 1 157.8539395 4.60211584 57.1048191
1 2 157.8538965 4.602096185 59.0741913
1 1 0.0012089999999886913 3.68208903 59.70058925
1 2 0.001927276153500029 3.682457555 61.6705401
1 1 157.853478 4.602491305 62.2982126
1 2 157.853007 4.601867525 64.26677945
1 1 0.0021264644639001837 3.681258455 64.89429165
1 2 0.0020232455790000076 3.68193709 66.8624465
1 1 157.8537535 4.602809525 67.4904043
1 2 157.854057 4.60241834 69.45927665
1 1 0.002242510117800002 3.6823445599999998 70.08624935
1 2 0.0018654999999796473 3.682638955 72.0557355
1 1 157.853365 4.60339839 72.68236555
1 2 157.8534015 4.603791205 74.6514931
1 1 0.0013930132109997856 3.681942305 75.2785999
1 2 0.0007715538610000173 3.68265712 77.24869125
1 1 157.8536995 4.60292783 77.8747538
1 2 157.853526 4.603254585 79.8442826
1 1 0.001352499999995871 3.68263909 80.4713901
1 2 0.001125499999972135 3.682022115 82.44002445
1 1 157.85377 4.603671075 83.0665755
1 2 157.8543195 4.6034267 85.03615525
1 1 0.0015319999999974243 3.68278205 85.66339165
1 2 0.0013364999999794236 3.682334705 87.63238645
1 1 157.8532 4.602877325 88.2596014
1 2 157.853194 4.603100935 90.22874145
1 1 0.0012274999999988268 3.681662145 90.8557127
1 2 0.0002479999999991378 3.68215645 92.8249168
1 1 157.8531155 4.602514485 93.45185135
1 2 157.853046 4.602753425 95.4208239
1 1 0.0007319999999992888 3.681573315 96.04834035
1 2 0.0003514999999936208 3.68161156 98.01684025
1 1 157.852589 4.6029378549999995 98.6440972
1 2 157.8525685 4.602986215 100.6140285
1 1 0.00016449999998258136 3.68266968 101.240278
1 2 3.799999998932435e-05 3.6826926400000004 103.2094275
1 1 157.851954 4.60319168 103.836234
1 2 157.8515915 4.603414075 105.8052135
1 1 -0.00059666916799999 3.68234314 106.4322775
1 2 -0.000568000000015445 3.682437825 108.402066
1 1 157.851535 4.60275812 109.028843
1 2 157.851327 4.60286024 110.9982645
1 1 -0.00039150000000631735 3.681677215 111.624616
1 2 -0.0006057100615000574 3.68163095 113.594163
1 1 157.8512275 4.60277092 114.220623
1 2 157.8513445 4.60257316 116.1904475
1 1 -0.0014242211234999948 3.682214055 116.8173105
1 2 -0.0014245000000130403 3.68159302 118.786371
1 1 157.8507325 4.60359335 119.4130745
1 2 157.8506535 4.60349192 121.3827075
1 1 -0.001352350348450002 3.68218442 122.0091345
1 2 -0.0016756920465999317 3.682496815 123.979195
1 1 157.850652 4.6028265 124.60582
1 2 157.8509245 4.60263736 126.5754645
1 1 -0.0018017416731000006 3.682369545 127.2020895
1 2 -0.0018350000000282307 3.68276964 129.17166
1 1 157.8502515 4.603013605 129.7983985
1 2 157.850261 4.60327904 131.76844
1 1 -0.0020180000000209475 3.682070445 132.395504
1 2 -0.0016550000000279397 3.6828913400000003 134.3647145
1 1 157.850148 4.60183309 134.9924365
1 2 157.850171 4.602322765 136.961056
1 1 -0.0020400000000222462 3.6818731 137.58818
1 2 -0.0015765000000271812 3.682262525 139.556949
1 1 157.8506385 4.602419155 140.184225
1 2 157.8502135 4.60224045 142.153838
1 1 -0.0016385394358999841 3.681529825 142.7801765
1 2 -0.001547500000015134 3.681473345 144.7493505
1 1 157.850472 4.60199143 145.3759425
1 2 157.8503135 4.6018906799999995 147.3451975
1 1 -0.000860500000015918 3.680881215 147.972514
1 2 -0.0005370000000084474 3.68136393 149.940343
1 1 157.851165 4.601654665 150.5677185
1 2 157.85159 4.601857835 152.5368255
1 1 -0.0005186198575499899 3.6812579100000002 153.164011
1 2 -0.0004500000000007276 3.68132893 155.132816
1 1 157.851234 4.60234996 155.7599775
1 2 157.851743 4.601895205 157.729357
1 1 -0.00019100000000094042 3.680836145 158.355936
1 2 -0.00012650000002167872 3.680901495 160.3251875
1 1 3.18929589 1.84018589 -0.011349445450650007
1 2 3.1887038 1.840206625 1.958190935
1 1 4.783518225 0.9192325705 2.5853051799999998
1 2 4.783713775 0.9192328925000001 4.55371151
1 1 3.188655215 1.839899945 5.18112086
1 2 3.1889766849999996 1.83944317 7.150099405
1 1 4.784024955 0.9194617305 7.77818794
1 2 4.78384221 0.9192307835 9.746423395
1 1 3.18961637 1.84013312 10.373766
1 2 3.19024534 1.840525215 12.3430792
1 1 4.784514175 0.9190849975000001 12.96985745
1 2 4.784103555 0.9192946340000001 14.9396726
1 1 3.18974329 1.84022508 15.56647645
1 2 3.189797125 1.839895645 17.534599
1 1 4.78429798 0.9196750385 18.16214535
1 2 4.783791255 0.919552047 20.1315931
1 1 3.18960881 1.83984586 20.758501
1 2 3.18973786 1.839815395 22.7282348
1 1 4.78371619 0.9195124085 23.3556512
1 2 4.78416357 0.919219674 25.324015
1 1 3.18970587 1.840416555 25.9514055
1 2 3.190032135 1.840019665 27.91988
1 1 4.783782205 0.9198529010000001 28.5473576
1 2 4.78348412 0.919355805 30.51594715
1 1 3.189734795 1.8402609749999999 31.1434425
1 2 3.19006077 1.8402715 33.11245935
1 1 4.784560385 0.919541461 33.7394229
1 2 4.784523205 0.919745962 35.70946695
1 1 3.18982523 1.8406371449999999 36.33570825
1 2 3.190156185 1.840434815 38.3058193
1 1 4.78456343 0.9206057464999999 38.93251045
1 2 4.78515705 0.9201490864999999 40.9012862
1 1 3.190102355 1.84020275 41.5286019
1 2 3.190084895 1.84036824 43.497874
1 1 4.784939775 0.919635732 44.1248679
1 2 4.78515746 0.9198380475 46.09349565
1 1 3.190791535 1.8409023299999998 46.72076525
1 2 3.19132417 1.8408553049999998 48.68964555
1 1 4.78511683 0.9194759345000001 49.3170019
1 2 4.78498053 0.9200666575 51.28589715
1 1 3.1911565 1.84068939 51.9125126
1 2 3.19138479 1.8415635550000002 53.88172875
1 1 4.78544359 0.920046683 54.50861225
1 2 4.785400395 0.920221879 56.47740555
1 1 3.191471345 1.840403755 57.10440215
1 2 3.19097458 1.840198945 59.07306315
1 1 4.78585805 0.920546152 59.70067955
1 2 4.78516399 0.920988156 61.67011505
1 1 3.1919290449999997 1.84085042 62.29713635
1 2 3.19118742 1.8410678950000001 64.2666703
1 1 4.785507985 0.9202201289999999 64.8939992
1 2 4.785304164999999 0.9206522975 66.86294025
1 1 3.191272175 1.84102255 67.4893729
1 2 3.191378745 1.84059302 69.4596401
1 1 4.78544699 0.919993681 70.0861117
1 2 4.785689335 0.9202623045 72.05631165
1 1 3.1907465150000003 1.8408921599999999 72.6825035
1 2 3.190884095 1.841008235 74.65252385
1 1 4.78534178 0.9197374215 75.27891805
1 2 4.784795004999999 0.9199110064999999 77.24743125
1 1 3.190411355 1.84159307 77.8749914
1 2 3.190550605 1.84079494 79.84385935
1 1 4.784702595 0.920664511 80.47117615
1 2 4.784351105 0.9204342445000001 82.4406305
1 1 3.1902169049999998 1.8408857500000002 83.0668275
1 2 3.19002381 1.841473015 85.036802
1 1 4.784614115 0.9202328525 85.6631384
1 2 4.78473272 0.9202983579999999 87.6329801
1 1 3.189969955 1.84136769 88.2600441
1 2 3.1900341 1.84106094 90.22867135
1 1 4.78475927 0.9200048575 90.8556032
1 2 4.784692185 0.9194813625 92.82496
1 1 3.1898649900000002 1.840454385 93.45197595
1 2 3.19008422 1.8405783150000001 95.4211181
1 1 4.784254435 0.9200434845000001 96.0476564
1 2 4.78446773 0.9202646135000002 98.0170755
1 1 3.18973577 1.84112166 98.64404595
1 2 3.189090255 1.840986165 100.6127485
1 1 4.78426739 0.9202634854999999 101.239867
1 2 4.784055455 0.920428708 103.2091585
1 1 3.1890945299999998 1.84135142 103.8359445
1 2 3.188708315 1.84045664 105.8051695
1 1 4.783077975 0.9204915445 106.4325115
1 2 4.78242525 0.9200352709999999 108.40093
1 1 3.18820486 1.8406836850000001 109.0284375
1 2 3.18859209 1.840745385 110.9977955
1 1 4.782588925 0.9202202144999999 111.62448499999999
1 2 4.78319029 0.9200703855 113.593809
1 1 3.188015365 1.841034085 114.2211685
1 2 3.1878154600000004 1.8409299399999999 116.1900415
1 1 4.78276625 0.9205612295000002 116.81701
1 2 4.78226829 0.9204159854999999 118.7860065
1 1 3.187259155 1.841230015 119.4126295
1 2 3.18716495 1.841184905 121.3831475
1 1 4.782470025 0.920522037 122.009743
1 2 4.782290575 0.9202651624999999 123.977828
1 1 3.187358715 1.8414032749999998 124.6057485
1 2 3.187615295 1.84069645 126.5749655
1 1 4.78204404 0.9203081230000002 127.20248
1 2 4.782256735 0.9202870550000001 129.171114
1 1 3.187308955 1.841182865 129.799201
1 2 3.1874655 1.840854995 131.768226
1 1 4.781669685 0.920154307 132.3950115
1 2 4.78182007 0.9208019295 134.3649945
1 1 3.18751877 1.8404677 134.9920855
1 2 3.187309405 1.84099044 136.9607485
1 1 4.78186861 0.9201506479999999 137.588121
1 2 4.781898605 0.9201407625 139.556683
1 1 3.187364085 1.840996945 140.184292
1 2 3.187335165 1.840628505 142.1536015
1 1 4.782279665 0.9197512130000001 142.780612
1 2 4.78210972 0.9198716705000002 144.748803
1 1 3.18777506 1.8401990049999999 145.375316
1 2 3.187662365 1.840256085 147.3453035
1 1 4.782423675 0.9199144290000001 147.971718
1 2 4.782939225 0.9196738244999999 149.941434
1 1 3.187918485 1.8405543 150.567682
1 2 3.1883657850000002 1.840003285 152.5368345
1 1 4.78229155 0.9193972750000001 153.1633975
1 2 4.78286497 0.919167421 155.133222
1 1 3.188541275 1.840477335 155.760075
1 2 3.18910927 1.8407328900000002 157.728583
1 1 4.783418755 0.9195575735 158.3549735
1 2 4.78297479 0.9193929789999997 160.325105
1 1 1.59509572 4.60172828 -0.011145000000027494
1 2 1.5946368 4.601797925 1.95809564
1 1 3.18918687 3.68082918 2.5856230449999997
1 2 3.1889343549999998 3.68087438 4.553945765
1 1 1.59438442 4.60180246 5.18079384
1 2 1.5949309199999997 4.6014921 7.15049339
1 1 3.18931346 3.681142205 7.777526215
1 2 3.18942311 3.68057387 9.747065095
1 1 1.59549129 4.601772365 10.37398735
1 2 1.595587195 4.601411375 12.34295425
1 1 3.18972331 3.68094015 12.97059885
1 2 3.189471235 3.681100955 14.9392328
1 1 1.5961441650000001 4.601629355 15.56667105
1 2 1.5952640999999999 4.601543765 17.5349402
1 1 3.189681395 3.6813419400000003 18.16207625
1 2 3.1892495050000003 3.680999145 20.13212095
1 1 1.59557711 4.602026175 20.7588469
1 2 1.59555144 4.60180236 22.72824535
1 1 3.18956133 3.681089445 23.35504415
1 2 3.189763655 3.681029 25.32416385
1 1 1.59516807 4.601386945 25.95078985
1 2 1.595547255 4.6014242 27.9201803
1 1 3.189483175 3.6812405200000002 28.54714375
1 2 3.18988643 3.681346435 30.5159635
1 1 1.59508519 4.602147235 31.1427072
1 2 1.595615615 4.60185591 33.11237795
1 1 3.189598645 3.68117288 33.7403334
1 2 3.18951996 3.6816181400000003 35.70833555
1 1 1.595126665 4.602176725 36.33585715
1 2 1.5956428950000001 4.602251235000001 38.304856
1 1 3.18988931 3.6819190649999998 38.9325084
1 2 3.18986335 3.68249754 40.90145905
1 1 1.596123965 4.602398815 41.52839435
1 2 1.595986495 4.602466715 43.49757145
1 1 3.1905787 3.6818475 44.1246955
1 2 3.1907417 3.68184428 46.09364475
1 1 1.59653015 4.602618785 46.72023865
1 2 1.59697673 4.602482335 48.68956715
1 1 3.191157375 3.681325235 49.3170555
1 2 3.1910058550000002 3.681581665 51.285787
1 1 1.59700035 4.602872835 51.91294565
1 2 1.59720859 4.6027993 53.88143995
1 1 3.191001325 3.6818984749999997 54.5084095
1 2 3.19106797 3.682231895 56.4771459
1 1 1.597149305 4.60209311 57.10442605
1 2 1.596685495 4.602444975 59.0737748
1 1 3.19108179 3.682424145 59.70105205
1 2 3.19142415 3.68206856 61.67016815
1 1 1.59657603 4.6027801550000005 62.29735675
1 2 1.59691015 4.602583445 64.26705435
1 1 3.19085258 3.681982965 64.8936763
1 2 3.1906503649999998 3.68183515 66.86310025
1 1 1.59695004 4.602787335 67.4898854
1 2 1.596397165 4.6022104 69.45940145
1 1 3.191091765 3.68175074 70.0862244
1 2 3.190945015 3.68269469 72.0561569
1 1 1.596224195 4.60280435 72.6822474
1 2 1.59666386 4.60324099 74.65197735
1 1 3.190660455 3.681596075 75.27891665
1 2 3.19009134 3.68195531 77.24830505
1 1 1.59597066 4.60313823 77.8744155
1 2 1.5956818799999999 4.603025205 79.84441565
1 1 3.19052857 3.68243126 80.47142725
1 2 3.1904136050000003 3.68218287 82.4399809
1 1 1.595795935 4.603375795 83.0675243
1 2 1.5961732849999999 4.603207015 85.03615995
1 1 3.190721205 3.681860435 85.66303555
1 2 3.190393245 3.681705865 87.6324907
1 1 1.595585635 4.603662225 88.25913145
1 2 1.5959252949999998 4.603166955 90.2294432
1 1 3.19023555 3.68165158 90.8549708
1 2 3.1904922749999995 3.68194231 92.82552395
1 1 1.5954111050000002 4.602987605 93.45189275
1 2 1.5944968150000003 4.6026245 95.4214393
1 1 3.190051115 3.681705925 96.0477018
1 2 3.18970644 3.68198465 98.01711505
1 1 1.594831985 4.60274201 98.64416195
1 2 1.5948368800000001 4.603043865 100.6133175
1 1 3.1893227299999998 3.68268323 101.239897
1 2 3.18910357 3.6823731900000003 103.2087605
1 1 1.593994785 4.60295664 103.8356945
1 2 1.593892265 4.602887355 105.805718
1 1 3.188311965 3.6825679499999997 106.4327415
1 2 3.188417505 3.682335405 108.401636
1 1 1.59362453 4.602647355 109.028845
1 2 1.593525825 4.60236267 110.997355
1 1 3.18852345 3.68184986 111.624582
1 2 3.188299985 3.6822666 113.5938505
1 1 1.59347201 4.602651285 114.2210965
1 2 1.593535765 4.602531225 116.189828
1 1 3.187789935 3.6823317049999997 116.8169935
1 2 3.18751793 3.682522505 118.7859185
1 1 1.59314424 4.603613705 119.412892
1 2 1.592984145 4.603209875 121.382695
1 1 3.18728563 3.681993375 122.009601
1 2 3.187365375 3.68199032 123.97906
1 1 1.59269092 4.6029163749999995 124.605608
1 2 1.5923378700000002 4.60243514 126.5753875
1 1 3.187085235 3.6820413100000002 127.202352
1 2 3.18759055 3.6825852 129.171765
1 1 1.59257832 4.603006535 129.798947
1 2 1.5926557399999999 4.602720965 131.7682545
1 1 3.18758681 3.682566075 132.39541
1 2 3.18758492 3.682770705 134.364685
1 1 1.592962985 4.602111885 134.9914075
1 2 1.59261525 4.6019047 136.9612435
1 1 3.18732205 3.68119222 137.587436
1 2 3.1875237100000002 3.68180899 139.557124
1 1 1.592465955 4.60225369 140.18386950000001
1 2 1.59223934 4.602434185 142.1530955
1 1 3.187570775 3.68171871 142.78008
1 2 3.187693155 3.68165257 144.749
1 1 1.5923516349999998 4.60181966 145.3758075
1 2 1.59275476 4.6018463 147.3449925
1 1 3.18739191 3.68091024 147.971336
1 2 3.18758647 3.68107569 149.941527
1 1 1.593514835 4.60170255 150.5680375
1 2 1.59333741 4.601439145 152.536938
1 1 3.18821371 3.6813954250000003 153.1638435
1 2 3.18857851 3.681376715 155.1327655
1 1 1.593746545 4.60139308 155.759443
1 2 1.59483227 4.60159576 157.7292955
1 1 3.188681755 3.68081611 158.355953
1 2 3.18904814 3.681170265 160.3241915
1 1 6.37737281 1.840661565 -0.011008000000032325
1 2 6.37759638 1.84049448 1.95788245
1 1 7.972305965 0.9195564455 2.58509446
1 2 7.97215239 0.919159194 4.55433023
1 1 6.37723653 1.839596335 5.181555575
1 2 6.378051295 1.8396810049999999 7.150254445
1 1 7.972815035 0.9193605340000001 7.7771982
1 2 7.972558295 0.919367781 9.747096185
1 1 6.379227235 1.83926046 10.37429875
1 2 6.37865283 1.84008378 12.34293695
1 1 7.973597575 0.9192905185 12.97062235
1 2 7.973133055 0.9198236465 14.9388837
1 1 6.378344615 1.8403865 15.56649575
1 2 6.37900394 1.8404831750000001 17.5352416
1 1 7.97317113 0.91955358 18.16216465
1 2 7.972878005 0.919643021 20.1317387
1 1 6.378507925 1.83997633 20.75894995
1 2 6.378884425 1.84010501 22.72832245
1 1 7.9727906850000005 0.9188979025 23.3544752
1 2 7.973028975 0.9194838569999999 25.3250013
1 1 6.378409945 1.8405011750000002 25.95156125
1 2 6.3783158 1.83975697 27.9199985
1 1 7.97261526 0.9201950375 28.5476434
1 2 7.972715195 0.9197520320000001 30.5163239
1 1 6.379138755 1.84053019 31.1435939
1 2 6.3790843299999995 1.840175005 33.11272855
1 1 7.97308905 0.9201147305 33.7398154
1 2 7.973429345 0.9203425015 35.70894595
1 1 6.378749325 1.840245745 36.3363692
1 2 6.378496185 1.84082829 38.305179
1 1 7.97346872 0.9200130795 38.9319186
1 2 7.9735095849999995 0.9202445955 40.90203895
1 1 6.37915426 1.840599555 41.52881515
1 2 6.379079355 1.840172105 43.4976388
1 1 7.97356767 0.920179947 44.12449165
1 2 7.97345405 0.9200779915 46.0936496
1 1 6.37988179 1.840565465 46.7210469
1 2 6.38009367 1.840536135 48.6902051
1 1 7.974409605 0.9201132894999995 49.3172205
1 2 7.974067745 0.9199689984999998 51.28607415
1 1 6.379590445 1.8411630350000001 51.91219335
1 2 6.37935885 1.841278955 53.8817969
1 1 7.97437621 0.9198504939999999 54.5085202
1 2 7.974197385 0.920044606 56.4782214
1 1 6.379918715 1.84077785 57.10461305
1 2 6.38029486 1.840912495 59.0737386
1 1 7.974561685 0.9202904105 59.7003958
1 2 7.97448436 0.9208688664999999 61.670198
1 1 6.38035087 1.84172001 62.29650315
1 2 6.38006995 1.84125121 64.2670236
1 1 7.97427191 0.921003814 64.8932353
1 2 7.974491975 0.920988018 66.86317355
1 1 6.380047515 1.84102233 67.4900729
1 2 6.38010659 1.8412289 69.45881255
1 1 7.974470875 0.9200896755000001 70.0863852
1 2 7.97429645 0.9200309500000001 72.0550505
1 1 6.37986872 1.8410065100000002 72.68301215
1 2 6.38008151 1.84089671 74.65161905
1 1 7.9738127400000005 0.920428537 75.27889385
1 2 7.9732423500000005 0.920325824 77.2470653
1 1 6.38010248 1.84092021 77.8751895
1 2 6.379983505 1.840850425 79.8445144
1 1 7.97396368 0.9199860299999999 80.4712626
1 2 7.973900925 0.9198006489999998 82.4405395
1 1 6.379806165 1.841821585 83.06710295
1 2 6.37977159 1.8413540950000002 85.0370531
1 1 7.973737725 0.9203183814999999 85.66411755
1 2 7.973750115 0.9201119620000002 87.6327377
1 1 6.38000978 1.8412362249999998 88.2596064
1 2 6.37907616 1.840938035 90.2289134
1 1 7.9736995 0.9199151705000002 90.8566223
1 2 7.97324453 0.9199304970000002 92.8251804
1 1 6.379365885 1.84072696 93.4522305
1 2 6.378600465 1.84118794 95.4208343
1 1 7.973690285 0.9200208360000001 96.048508
1 2 7.973290635 0.919416254 98.0171599
1 1 6.37830338 1.841184565 98.64402035
1 2 6.37821742 1.841396655 100.613353
1 1 7.97292344 0.9210283714999999 101.2403385
1 2 7.972006925 0.9203933635000001 103.2084995
1 1 6.377603695 1.840963865 103.8358375
1 2 6.37797985 1.840791775 105.8048785
1 1 7.971622105 0.9204170715000002 106.4321715
1 2 7.97110291 0.9202652309999999 108.40022
1 1 6.37722832 1.8406698849999998 109.0279055
1 2 6.377421 1.84054944 110.9977165
1 1 7.971300005 0.9203883465 111.624693
1 2 7.971327785 0.92064747 113.593658
1 1 6.37676492 1.84074943 114.2205165
1 2 6.376957625 1.840787185 116.190528
1 1 7.97144925 0.920415054 116.817228
1 2 7.9715136 0.9206024415 118.786527
1 1 6.37654933 1.840744125 119.413315
1 2 6.376412815 1.8405852850000002 121.3828335
1 1 7.97147523 0.9203425235 122.010128
1 2 7.971355595 0.9206024720000001 123.978382
1 1 6.37699137 1.841011885 124.605785
1 2 6.376921885 1.8408720749999998 126.575296
1 1 7.971333435 0.9206112905 127.202182
1 2 7.971305815 0.92091415 129.1711815
1 1 6.37678826 1.841113135 129.798801
1 2 6.376719805 1.84100064 131.7681825
1 1 7.970655185 0.920774256 132.3948605
1 2 7.971407685 0.9210025115 134.3645875
1 1 6.37662223 1.841241525 134.9920145
1 2 6.376299595 1.8409358699999998 136.9608535
1 1 7.971563545 0.9199722105 137.58829
1 2 7.971095355 0.9199433674999999 139.556253
1 1 6.3760091150000004 1.8406046049999998 140.183755
1 2 6.37595458 1.840515605 142.153572
1 1 7.97063684 0.9199051380000001 142.779728
1 2 7.97086526 0.9197049395000001 144.7491625
1 1 6.376514615 1.840471255 145.376229
1 2 6.37644172 1.84031908 147.344403
1 1 7.970907045 0.9192555235 147.9714025
1 2 7.971345995 0.919484606 149.940566
1 1 6.376778275 1.84066801 150.567831
1 2 6.37748368 1.84010074 152.5370865
1 1 7.971305805 0.9193724834999998 153.1645665
1 2 7.9718193 0.9195438559999999 155.132704
1 1 6.377582655 1.840011385 155.7599205
1 2 6.37732468 1.84021011 157.729031
1 1 7.972400275 0.9197716235 158.3559305
1 2 7.972564205 0.920041183 160.3243105
1 1 4.783303555 4.602319715 -0.011414332096149865
1 2 4.78338953 4.602144165 1.957576375
1 1 6.37809605 3.680788795 2.585196285
1 2 6.377938675 3.680904995 4.55483577
1 1 4.783225845 4.60151601 5.181598295
1 2 4.78363112 4.60131244 7.14975994
1 1 6.378458915 3.680914755 7.77744767
1 2 6.378516315 3.681333655 9.746901275
1 1 4.78427067 4.6014333 10.37447255
1 2 4.7844593 4.602247635 12.3427747
1 1 6.37896905 3.68107194 12.97017315
1 2 6.378186995 3.68079716 14.9389873
1 1 4.784182345 4.60202238 15.5663653
1 2 4.784303655 4.601926435 17.53497075
1 1 6.37861437 3.680804085 18.16244565
1 2 6.378309905 3.68143191 20.1313621
1 1 4.784521955 4.601859315 20.7592492
1 2 4.784667305 4.60141393 22.72775155
1 1 6.3785066950000004 3.680995665 23.3555242
1 2 6.378262655 3.68087551 25.32463045
1 1 4.7845153499999995 4.60197324 25.95171675
1 2 4.783955085 4.602280015 27.91989385
1 1 6.37877248 3.6813664 28.5471093
1 2 6.37869038 3.68138279 30.51688115
1 1 4.78399978 4.60213098 31.14336625
1 2 4.78479428 4.60194481 33.1124788
1 1 6.3782076850000005 3.681662215 33.7395802
1 2 6.37876976 3.68203509 35.708864750000004
1 1 4.784096635 4.60237815 36.3362072
1 2 4.784146975 4.602099485 38.30518335
1 1 6.378987175 3.681684745 38.93244915
1 2 6.379242545 3.68183086 40.90152455
1 1 4.78499496 4.602380155 41.5287192
1 2 4.784937145 4.60226854 43.4975562
1 1 6.37923474 3.681514065 44.1248988
1 2 6.379890805 3.681758725 46.09408215
1 1 4.78542721 4.602819885 46.72142575
1 2 4.7857528 4.60257804 48.6898171
1 1 6.37983137 3.68201526 49.31765275
1 2 6.37975849 3.681513405 51.2856091
1 1 4.785339265 4.60269841 51.91295885
1 2 4.785313535 4.603457845 53.88194425
1 1 6.37981773 3.6821831350000003 54.5091564
1 2 6.379623165 3.681754705 56.47747085
1 1 4.78549593 4.60231773 57.1043272
1 2 4.78582622 4.602306295 59.07317
1 1 6.38024489 3.68216405 59.70060465
1 2 6.380062515 3.6820670349999998 61.6699354
1 1 4.78607271 4.60282641 62.2978002
1 2 4.785618215 4.603014775 64.2668705
1 1 6.379972005 3.682804375 64.8939878
1 2 6.38005575 3.6822882 66.86260945
1 1 4.78574199 4.60272601 67.4900789
1 2 4.78590596 4.602622955 69.4590129
1 1 6.380210735 3.681688915 70.0867643
1 2 6.3799582599999995 3.68175332 72.055502
1 1 4.78494623 4.602744315 72.6827671
1 2 4.78526228 4.602939815 74.65202805
1 1 6.37964861 3.68145399 75.27835195
1 2 6.379602045 3.681894745 77.24805175
1 1 4.78478904 4.60266732 77.87478925
1 2 4.785252645 4.602151845 79.84424455
1 1 6.37927334 3.681834535 80.4709731
1 2 6.379243515 3.68178454 82.44095335
1 1 4.78519201 4.60271245 83.0675113
1 2 4.78481707 4.602744035 85.0364474
1 1 6.380100215000001 3.68207839 85.6637256
1 2 6.38033814 3.6816232 87.63277985
1 1 4.785120495 4.603205365 88.25989475
1 2 4.784514215 4.60296236 90.228942
1 1 6.379153765 3.681568395 90.85592815
1 2 6.379137115 3.681659885 92.82547385
1 1 4.78476574 4.6023031 93.452049
1 2 4.784408535 4.602804030000001 95.42066575